 variables ="x","u","ue","error"
 zone T=           1
   0.0000000000000000        2.8990242006909129E-002   2.8990242006909129E-002   0.0000000000000000     
   9.8174770424681035E-002   4.3391051711480666E-002   4.3248007854351844E-002   1.4304385712882173E-004
  0.19634954084936207        5.6146536819236363E-002   5.5843777013714166E-002   3.0275980552219722E-004
  0.29452431127404310        6.6755121449498314E-002   6.6293501139990288E-002   4.6162030950802624E-004
  0.39269908169872414        7.4797279421882371E-002   7.4195603195280416E-002   6.0167622660195486E-004
  0.49087385212340517        7.9952116002728418E-002   7.9246409829149503E-002   7.0570617357891552E-004
  0.58904862254808621        8.2010160423454062E-002   8.1251821375183025E-002   7.5833904827103671E-004
  0.68722339297276724        8.0881859581629578E-002   8.0134770992314641E-002   7.4708858931493705E-004
  0.78539816339744828        7.6601429111574595E-002   7.5938186300308949E-002   6.6324281126564633E-004
  0.88357293382212931        6.9325897666033587E-002   6.8823339695407909E-002   5.0255797062567775E-004
  0.98174770424681035        5.9329366828058089E-002   5.9063650742585815E-002   2.6571608547227427E-004
   1.0799224746714913        4.6992695324552546E-002   4.7034178815003186E-002  -4.1483490450640315E-005
   1.1780972450961724        3.2788994880826351E-002   3.3197209772631360E-002  -4.0821489180500881E-004
   1.2762720155208536        1.7265489150850678E-002   1.8084490575906900E-002  -8.1900142505622262E-004
   1.3744467859455345        1.0224302363977416E-003   2.2767945482496366E-003  -1.2543643118518950E-003
   1.4726215563702154       -1.5310116278374619E-002  -1.3618397417055911E-002  -1.6917188613187074E-003
   1.5707963267948966       -3.1096721731769750E-002  -2.8990242006909122E-002  -2.1064797248606278E-003
   1.6689710972195777       -4.5721333787531744E-002  -4.3248007854351837E-002  -2.4733259331799068E-003
   1.7671458676442586       -5.8611344808412319E-002  -5.5843777013714159E-002  -2.7675677946981600E-003
   1.8653206380689396       -6.9260053057339233E-002  -6.6293501139990274E-002  -2.9665519173489585E-003
   1.9634954084936207       -7.7246641140738481E-002  -7.4195603195280416E-002  -3.0510379454580655E-003
   2.0616701789183018       -8.2252891106413817E-002  -7.9246409829149489E-002  -3.0064812772643279E-003
   2.1598449493429825       -8.4075981458010263E-002  -8.1251821375183025E-002  -2.8241600828272373E-003
   2.2580197197676637       -8.2636863236231831E-002  -8.0134770992314669E-002  -2.5020922439171617E-003
   2.3561944901923448       -7.7983884384229790E-002  -7.5938186300308949E-002  -2.0456980839208411E-003
   2.4543692606170260       -7.0291517174748935E-002  -6.8823339695407840E-002  -1.4681774793410957E-003
   2.5525440310417071       -5.9854235269071299E-002  -5.9063650742585821E-002  -7.9058452648547717E-004
   2.6507188014663878       -4.7075777443522211E-002  -4.7034178815003193E-002  -4.1598628519018410E-005
   2.7488935718910690       -3.2454216591010193E-002  -3.3197209772631235E-002   7.4299318162104194E-004
   2.8470683423157501       -1.6563418000949206E-002  -1.8084490575906911E-002   1.5210725749577048E-003
   2.9452431127404308       -3.1613431745313624E-005  -2.2767945482496462E-003   2.2451811165043324E-003
   3.0434178831651120        1.6482068750511374E-002   1.3618397417055901E-002   2.8636713334554732E-003
   3.1415926535897931        3.2312196865115550E-002   2.8990242006909108E-002   3.3219548582064419E-003
   3.2397674240144743        4.6811788927090772E-002   4.3248007854351955E-002   3.5637810727388169E-003
   3.3379421944391554        5.9376257489527615E-002   5.5843777013714152E-002   3.5324804758134626E-003
   3.4361169648638361        6.9465613756787573E-002   6.6293501139990274E-002   3.1721126167972985E-003
   3.5342917352885173        7.6624072051420994E-002   7.4195603195280416E-002   2.4284688561405782E-003
   3.6324665057131984        8.0496304884040609E-002   7.9246409829149489E-002   1.2498950548911203E-003
   3.7306412761378791        8.0839739216145443E-002   8.1251821375183025E-002  -4.1208215903758283E-004
   3.8288160465625602        7.7532450260948918E-002   8.0134770992314641E-002  -2.6023207313657232E-003
   3.9269908169872414        7.0576393369582976E-002   7.5938186300308963E-002  -5.3617929307259865E-003
   4.0251655874119221        6.0095909293600078E-002   6.8823339695407909E-002  -8.7274304018078314E-003
   4.1233403578366037        4.6331634879097985E-002   5.9063650742585801E-002  -1.2732015863487815E-002
   4.2215151282612844        2.9630141269627458E-002   4.7034178815003172E-002  -1.7404037545375714E-002
   4.3196898986859651        1.0429796372331358E-002   3.3197209772631339E-002  -2.2767413400299981E-002
   4.4178646691106467       -1.0756500345433618E-002   1.8084490575906886E-002  -2.8840990921340504E-002
   4.5160394395353274       -3.3360941734035032E-002   2.2767945482496201E-003  -3.5637736282284650E-002
   4.6142142099600090       -5.6781941602608903E-002  -1.3618397417055929E-002  -4.3163544185552974E-002
   4.7123889803846897       -8.0405869174374839E-002  -2.8990242006909136E-002  -5.1415627167465699E-002
   4.8105637508093704      -0.10362848700033116       -4.3248007854351844E-002  -6.0380479145979313E-002
   4.9087385212340520      -0.12587522733965892       -5.5843777013714166E-002  -7.0031450325944752E-002
   5.0069132916587327      -0.14661951556030103       -6.6293501139990288E-002  -8.0326014420310746E-002
   5.1050880620834143      -0.16539844720890287       -7.4195603195280416E-002  -9.1202844013622456E-002
   5.2032628325080950      -0.18182521912210572       -7.9246409829149503E-002 -0.10257880929295622     
   5.3014376029327757      -0.19559772667703113       -8.1251821375183025E-002 -0.11434590530184810     
   5.3996123733574573      -0.20650244829734637       -8.0134770992314641E-002 -0.12636767730503173     
   5.4977871437821380      -0.21441150192179595       -7.5938186300308935E-002 -0.13847331562148701     
   5.5959619142068187      -0.21926669884683150       -6.8823339695407895E-002 -0.15044335915142359     
   5.6941366846315002      -0.22103208667136867       -5.9063650742585815E-002 -0.16196843592878285     
   5.7923114550561809      -0.21956017995481011       -4.7034178815003186E-002 -0.17252600113980693     
   5.8904862254808616      -0.21421214000697525       -3.3197209772631353E-002 -0.18101493023434390     
   5.9886609959055432      -0.20277252039073662       -1.8084490575906893E-002 -0.18468802981482974     
   6.0868357663302239      -0.17835251369402624       -2.2767945482496301E-003 -0.17607571914577660     
   6.1850105367549055      -0.12060598817918521        1.3618397417055917E-002 -0.13422438559624111     
   6.2831853071795862        2.8990242006909125E-002   2.8990242006909125E-002   0.0000000000000000     
 variables ="x","u","ue","error"
 zone T=           2
   0.0000000000000000        5.1966017202752018E-003   5.1966017202752018E-003   0.0000000000000000     
   9.8174770424681035E-002   2.1041969581848310E-002   2.0921976196711427E-002   1.1999338513688299E-004
  0.19634954084936207        3.6116450509718165E-002   3.5843330861087597E-002   2.7311964863056815E-004
  0.29452431127404310        4.9830854994334428E-002   4.9387246421643563E-002   4.4360857269086507E-004
  0.39269908169872414        6.1647145757867131E-002   6.1033237798902754E-002   6.1390795896437700E-004
  0.49087385212340517        7.1099538981036034E-002   7.0333756075384099E-002   7.6578290565193496E-004
  0.58904862254808621        7.7812856964230806E-002   7.6931387549513286E-002   8.8146941471752005E-004
  0.68722339297276724        8.1517409359353990E-002   8.0572588943733897E-002   9.4482041562009289E-004
  0.78539816339744828        8.2059813030144660E-002   8.1117430930475229E-002   9.4238209966943098E-004
  0.88357293382212931        7.9409316882556133E-002   7.8544975537737802E-002   8.6434134481833125E-004
  0.98174770424681035        7.3659371636631860E-002   7.2954080783614789E-002   7.0529085301707095E-004
   1.0799224746714913        6.5024368776019428E-002   6.4559601618097387E-002   4.6476715792204137E-004
   1.1780972450961724        5.3831660663611565E-002   5.3684133167838224E-002   1.4752749577334051E-004
   1.2762720155208536        4.0509157745310942E-002   4.0745613586347644E-002  -2.3645584103670209E-004
   1.3744467859455345        2.5568971696453807E-002   2.6241262925137201E-002  -6.7229122868339361E-004
   1.4726215563702154        9.5877285189840903E-003   1.0728475245983389E-002  -1.1407467269992991E-003
   1.5707963267948966       -6.8156931368130516E-003  -5.1966017202751923E-003  -1.6190914165378593E-003
   1.6689710972195777       -2.3004140974072534E-002  -2.0921976196711420E-002  -2.0821647773611139E-003
   1.7671458676442586       -3.8346958917078768E-002  -3.5843330861087590E-002  -2.5036280559911778E-003
   1.8653206380689396       -5.2244588361346482E-002  -4.9387246421643549E-002  -2.8573419397029329E-003
   1.9634954084936207       -6.4152045690147888E-002  -6.1033237798902754E-002  -3.1188078912451345E-003
   2.0616701789183018       -7.3600362663413965E-002  -7.0333756075384099E-002  -3.2666065880298661E-003
   2.1598449493429825       -8.0215153861510416E-002  -7.6931387549513286E-002  -3.2837663119971300E-003
   2.2580197197676637       -8.3731585888940516E-002  -8.0572588943733883E-002  -3.1589969452066324E-003
   2.3561944901923448       -8.4005162298002395E-002  -8.1117430930475229E-002  -2.8877313675271660E-003
   2.4543692606170260       -8.1017900816596752E-002  -7.8544975537737774E-002  -2.4729252788589784E-003
   2.5525440310417071       -7.4879659144876029E-002  -7.2954080783614803E-002  -1.9255783612612265E-003
   2.6507188014663878       -6.5824555297543885E-002  -6.4559601618097401E-002  -1.2649536794464844E-003
   2.7488935718910690       -5.4202620742822283E-002  -5.3684133167838176E-002  -5.1848757498410697E-004
   2.8470683423157501       -4.0467011797805437E-002  -4.0745613586347651E-002   2.7860178854221401E-004
   2.9452431127404308       -2.5157279393732149E-002  -2.6241262925137211E-002   1.0839835314050625E-003
   3.0434178831651120       -8.8793523677808857E-003  -1.0728475245983471E-002   1.8491228782025852E-003
   3.1415926535897931        7.7169814682445329E-003   5.1966017202751827E-003   2.5203797479693502E-003
   3.2397674240144743        2.3962214446953119E-002   2.0921976196711479E-002   3.0402382502416406E-003
   3.3379421944391554        3.9191933990688904E-002   3.5843330861087576E-002   3.3486031296013283E-003
   3.4361169648638361        5.2771344906473727E-002   4.9387246421643542E-002   3.3840984848301850E-003
   3.5342917352885173        6.4118545863121462E-002   6.1033237798902698E-002   3.0853080642187641E-003
   3.6324665057131984        7.2725661208574641E-002   7.0333756075384099E-002   2.3919051331905417E-003
   3.7306412761378791        7.8177020576115586E-002   7.6931387549513286E-002   1.2456330266022997E-003
   3.8288160465625602        8.0163703334751993E-002   8.0572588943733883E-002  -4.0888560898189041E-004
   3.9269908169872414        7.8493917728659393E-002   8.1117430930475229E-002  -2.6235132018158358E-003
   4.0251655874119221        7.3098859088264620E-002   7.8544975537737802E-002  -5.4461164494731817E-003
   4.1233403578366037        6.4033880292827833E-002   7.2954080783614803E-002  -8.9202004907869697E-003
   4.2215151282612844        5.1475002486508492E-002   6.4559601618097401E-002  -1.3084599131588909E-002
   4.3196898986859651        3.5710986273672397E-002   5.3684133167838238E-002  -1.7973146894165841E-002
   4.4178646691106467        1.7131364627979286E-002   4.0745613586347665E-002  -2.3614248958368379E-002
   4.5160394395353274       -3.7889996490780885E-003   2.6241262925137218E-002  -3.0030262574215306E-002
   4.6142142099600090       -2.6508134233958935E-002   1.0728475245983408E-002  -3.7236609479942340E-002
   4.7123889803846897       -5.0437155626793705E-002  -5.1966017202751723E-003  -4.5240553906518530E-002
   4.8105637508093704       -7.4961580891599044E-002  -2.0921976196711402E-002  -5.4039604694887639E-002
   4.9087385212340520       -9.9462862197349303E-002  -3.5843330861087569E-002  -6.3619531336261734E-002
   5.0069132916587327      -0.12333926451596790       -4.9387246421643535E-002  -7.3952018094324362E-002
   5.1050880620834143      -0.14602524463094477       -6.1033237798902733E-002  -8.4992006832042027E-002
   5.2032628325080950      -0.16700852432466404       -7.0333756075384085E-002  -9.6674768249279952E-002
   5.3014376029327757      -0.18584399711169519       -7.6931387549513286E-002 -0.10891260956218191     
   5.3996123733574573      -0.20216322206711315       -8.0572588943733883E-002 -0.12159063312337927     
   5.4977871437821380      -0.21567683590837475       -8.1117430930475229E-002 -0.13455940497789953     
   5.5959619142068187      -0.22616272701930729       -7.8544975537737802E-002 -0.14761775148156947     
   5.6941366846315002      -0.23341945685415003       -7.2954080783614803E-002 -0.16046537607053524     
   5.7923114550561809      -0.23712570710764461       -6.4559601618097415E-002 -0.17256610548954721     
   5.8904862254808616      -0.23643612103344980       -5.3684133167838238E-002 -0.18275198786561156     
   5.9886609959055432      -0.22883254609671938       -4.0745613586347672E-002 -0.18808693251037170     
   6.0868357663302239      -0.20688008431569352       -2.6241262925137229E-002 -0.18063882139055629     
   6.1850105367549055      -0.14913004467517141       -1.0728475245983417E-002 -0.13840156942918799     
   6.2831853071795862        5.1966017202751645E-003   5.1966017202751645E-003   0.0000000000000000     
 variables ="x","u","ue","error"
 zone T=           3
   0.0000000000000000        2.7305690969252110E-002   2.7305690969252110E-002   0.0000000000000000     
   9.8174770424681035E-002   4.1858913498285133E-002   4.1717144906706534E-002   1.4176859157859906E-004
  0.19634954084936207        5.4826920983653549E-002   5.4525432360640738E-002   3.0148862301281054E-004
  0.29452431127404310        6.5700047263387601E-002   6.5238338027170148E-002   4.6170923621745297E-004
  0.39269908169872414        7.4048626152888347E-002   7.3444170949396967E-002   6.0445520349138027E-004
  0.49087385212340517        7.9539961694036307E-002   7.8827585570003966E-002   7.1237612403234063E-004
  0.58904862254808621        8.1951575030934989E-002   8.1181700284175040E-002   7.6987474675994927E-004
  0.68722339297276724        8.1180200836345001E-002   8.0416047783647276E-002   7.6415305269772471E-004
  0.78539816339744828        7.7246170052946983E-002   7.6560051664633116E-002   6.8611838831386662E-004
  0.88357293382212931        7.0292994182750645E-002   6.9761895695518744E-002   5.3109848723190134E-004
  0.98174770424681035        6.0582152548789743E-002   6.0282829197747349E-002   2.9932335104239371E-004
   1.0799224746714913        4.8483270635201518E-002   4.8487127380906700E-002  -3.8567457051816301E-006
   1.1780972450961724        3.4460057511512147E-002   3.4828092450712132E-002  -3.6803493919998487E-004
   1.2762720155208536        1.9052536430927480E-002   1.9830633459455835E-002  -7.7809702852835519E-004
   1.3744467859455345        2.8562484412937676E-003   4.0710943455001466E-003  -1.2148459042063790E-003
   1.4726215563702154       -1.3500771488853064E-002  -1.1844894641057240E-002  -1.6558768477958237E-003
   1.5707963267948966       -2.9382357502493635E-002  -2.7305690969252099E-002  -2.0766665332415356E-003
   1.6689710972195777       -4.4168972303572286E-002  -4.1717144906706520E-002  -2.4518273968657661E-003
   1.7671458676442586       -5.7281902521176681E-002  -5.4525432360640724E-002  -2.7564701605359565E-003
   1.8653206380689396       -6.8205949200289676E-002  -6.5238338027170148E-002  -2.9676111731195276E-003
   1.9634954084936207       -7.6509729185819567E-002  -7.3444170949396967E-002  -3.0655582364225997E-003
   2.0616701789183018       -8.1862794485954654E-002  -7.8827585570003966E-002  -3.0352089159506879E-003
   2.1598449493429825       -8.4048899340836647E-002  -8.1181700284175040E-002  -2.8671990566616068E-003
   2.2580197197676637       -8.2974893996948865E-002  -8.0416047783647276E-002  -2.5588462133015882E-003
   2.3561944901923448       -7.8674894341622476E-002  -7.6560051664633103E-002  -2.1148426769893730E-003
   2.4543692606170260       -7.1309560977417794E-002  -6.9761895695518675E-002  -1.5476652818991188E-003
   2.5525440310417071       -6.1160512800348558E-002  -6.0282829197747308E-002  -8.7768360260125078E-004
   2.6507188014663878       -4.8620091146376512E-002  -4.8487127380906658E-002  -1.3296376546985400E-004
   2.7488935718910690       -3.4176873503828746E-002  -3.4828092450712014E-002   6.5121894688326826E-004
   2.8470683423157501       -1.8397503325191612E-002  -1.9830633459455772E-002   1.4331301342641600E-003
   2.9452431127404308       -1.9055478218981746E-003  -4.0710943455000851E-003   2.1655465236019105E-003
   3.0434178831651120        1.4641787182994030E-002   1.1844894641057230E-002   2.7968925419367997E-003
   3.1415926535897931        3.0578172147719539E-002   2.7305690969252158E-002   3.2724811784673805E-003
   3.2397674240144743        4.5252937837334833E-002   4.1717144906706638E-002   3.5357929306281954E-003
   3.3379421944391554        5.8055159348008305E-002   5.4525432360640773E-002   3.5297269873675319E-003
   3.4361169648638361        6.8436101997062362E-002   6.5238338027170176E-002   3.1977639698921867E-003
   3.5342917352885173        7.5929160467699486E-002   7.3444170949396967E-002   2.4849895183025189E-003
   3.6324665057131984        8.0166528012480240E-002   7.8827585570003980E-002   1.3389424424762597E-003
   3.7306412761378791        8.0891969637702912E-002   8.1181700284175040E-002  -2.8973064647212776E-004
   3.8288160465625602        7.7969236391372931E-002   8.0416047783647276E-002  -2.4468113922743451E-003
   3.9269908169872414        7.1385840308554827E-002   7.6560051664633103E-002  -5.1742113560782760E-003
   4.0251655874119221        6.1252103408734521E-002   6.9761895695518716E-002  -8.5097922867841957E-003
   4.1233403578366037        4.7795590920523920E-002   6.0282829197747342E-002  -1.2487238277223423E-002
   4.2215151282612844        3.1351229878433022E-002   4.8487127380906693E-002  -1.7135897502473671E-002
   4.3196898986859651        1.2347590764265792E-002   3.4828092450712118E-002  -2.2480501686446327E-002
   4.4178646691106467       -8.7100361373564344E-003   1.9830633459455817E-002  -2.8540669596812250E-002
   4.5160394395353274       -3.1259013663579319E-002   4.0710943455001310E-003  -3.5330108009079451E-002
   4.6142142099600090       -5.4700335068275721E-002  -1.1844894641057256E-002  -4.2855440427218464E-002
   4.7123889803846897       -7.8420311349498742E-002  -2.7305690969252113E-002  -5.1114620380246625E-002
   4.8105637508093704      -0.10181206626629224       -4.1717144906706534E-002  -6.0094921359585711E-002
   4.9087385212340520      -0.12429596946011903       -5.4525432360640738E-002  -6.9770537099478294E-002
   5.0069132916587327      -0.14533820720120683       -6.5238338027170148E-002  -8.0099869174036678E-002
   5.1050880620834143      -0.16446678418323660       -7.3444170949396967E-002  -9.1022613233839630E-002
   5.2032628325080950      -0.18128433940262298       -7.8827585570003966E-002 -0.10245675383261901     
   5.3014376029327757      -0.19547716605635035       -8.1181700284175040E-002 -0.11429546577217531     
   5.3996123733574573      -0.20681952643529727       -8.0416047783647276E-002 -0.12640347865165000     
   5.4977871437821380      -0.21517109867421014       -7.6560051664633116E-002 -0.13861104700957702     
   5.5959619142068187      -0.22046128839726675       -6.9761895695518744E-002 -0.15069939270174801     
   5.6941366846315002      -0.22264168993751621       -6.0282829197747349E-002 -0.16235886073976885     
   5.7923114550561809      -0.22155139606127480       -4.8487127380906700E-002 -0.17306426868036812     
   5.8904862254808616      -0.21653418420503026       -3.4828092450712125E-002 -0.18170609175431812     
   5.9886609959055432      -0.20534515893162808       -1.9830633459455821E-002 -0.18551452547217226     
   6.0868357663302239      -0.18103341306189322       -4.0710943455001362E-003 -0.17696231871639309     
   6.1850105367549055      -0.12310746195394888        1.1844894641057249E-002 -0.13495235659500612     
   6.2831853071795862        2.7305690969252110E-002   2.7305690969252110E-002   0.0000000000000000     
 variables ="x","u","ue","error"
 zone T=           4
   0.0000000000000000        1.5383798628894127E-002   1.5383798628894127E-002   0.0000000000000000     
   9.8174770424681035E-002   3.0790413167785267E-002   3.0659272267203174E-002   1.3114090058209335E-004
  0.19634954084936207        4.5045302760306355E-002   4.4756527266201711E-002   2.8877549410464415E-004
  0.29452431127404310        5.7590024074686254E-002   5.7133814022109652E-002   4.5621005257660135E-004
  0.39269908169872414        6.7931008532390882E-002   6.7315480346160056E-002   6.1552818623082650E-004
  0.49087385212340517        7.5658974181407379E-002   7.4910250511463744E-002   7.4872366994363504E-004
  0.58904862254808621        8.0465115406271021E-002   7.9626261759764366E-002   8.3885364650665428E-004
  0.68722339297276724        8.2153430366960156E-002   8.1282280423559311E-002   8.7114994340084517E-004
  0.78539816339744828        8.0648694445238894E-002   7.9814666634304893E-002   8.3402781093400158E-004
  0.88357293382212931        7.5999755948386871E-002   7.5279819966874884E-002   7.1993598151198768E-004
  0.98174770424681035        6.8378011393213464E-002   6.7852012035527223E-002   5.2599935768624095E-004
   1.0799224746714913        5.8071104853400606E-002   5.7816689333501051E-002   2.5441551989955485E-004
   1.1780972450961724        4.5472081826205574E-002   4.5559503684361381E-002  -8.7421858155807552E-005
   1.2762720155208536        3.1064405608182424E-002   3.1551491858695609E-002  -4.8708625051318427E-004
   1.3744467859455345        1.5403406315928705E-002   1.6330973895180768E-002  -9.2756757925206365E-004
   1.4726215563702154       -9.0512692548085528E-004   4.8286576338966785E-004  -1.3879926888705231E-003
   1.5707963267948966       -1.7228387023857466E-002  -1.5383798628894116E-002  -1.8445883949633497E-003
   1.6689710972195777       -3.2931118318604478E-002  -3.0659272267203167E-002  -2.2718460514013113E-003
   1.7671458676442586       -4.7400363284355103E-002  -4.4756527266201697E-002  -2.6438360181534060E-003
   1.8653206380689396       -6.0069426321685812E-002  -5.7133814022109645E-002  -2.9356122995761666E-003
   1.9634954084936207       -7.0440122754410264E-002  -6.7315480346160042E-002  -3.1246424082502222E-003
   2.0616701789183018       -7.8102446019406094E-002  -7.4910250511463730E-002  -3.1921955079423636E-003
   2.1598449493429825       -8.2750885025011475E-002  -7.9626261759764366E-002  -3.1246232652471090E-003
   2.2580197197676637       -8.4196753015859660E-002  -8.1282280423559311E-002  -2.9144725923003489E-003
   2.3561944901923448       -8.2376044054509212E-002  -7.9814666634304879E-002  -2.5613774202043332E-003
   2.4543692606170260       -7.7352507427292841E-002  -7.5279819966874828E-002  -2.0726874604180129E-003
   2.5525440310417071       -6.9315817116888848E-002  -6.7852012035527182E-002  -1.4638050813616660E-003
   2.6507188014663878       -5.8574905626923406E-002  -5.7816689333501016E-002  -7.5821629342238961E-004
   2.7488935718910690       -4.5546721300218786E-002  -4.5559503684361270E-002   1.2782384142484560E-005
   2.8470683423157501       -3.0740848276891160E-002  -3.1551491858695546E-002   8.1064358180438570E-004
   2.9452431127404308       -1.4740591150832481E-002  -1.6330973895180706E-002   1.5903827443482250E-003
   3.0434178831651120        1.8187344247403037E-003  -4.8286576338967777E-004   2.3016001881299816E-003
   3.1415926535897931        1.8273454205433394E-002   1.5383798628894177E-002   2.8896555765392171E-003
   3.2397674240144743        3.3956204280339658E-002   3.0659272267203292E-002   3.2969320131363659E-003
   3.3379421944391554        4.8220651574624462E-002   4.4756527266201752E-002   3.4641243084227100E-003
   3.4361169648638361        6.0465301972491094E-002   5.7133814022109687E-002   3.3314879503814065E-003
   3.5342917352885173        7.0155472416670875E-002   6.7315480346160042E-002   2.8399920705108328E-003
   3.6324665057131984        7.6842581617065059E-002   7.4910250511463758E-002   1.9323311056013009E-003
   3.7306412761378791        8.0180027188624117E-002   7.9626261759764366E-002   5.5376542885975100E-004
   3.8288160465625602        7.9935060548654735E-002   8.1282280423559311E-002  -1.3472198749045761E-003
   3.9269908169872414        7.5996238765555849E-002   7.9814666634304879E-002  -3.8184278687490303E-003
   4.0251655874119221        6.8376217631800670E-002   7.5279819966874856E-002  -6.9036023350741854E-003
   4.1233403578366037        5.7209844522700184E-002   6.7852012035527196E-002  -1.0642167512827011E-002
   4.2215151282612844        4.2747704547728194E-002   5.7816689333501044E-002  -1.5068984785772850E-002
   4.3196898986859651        2.5345460392884440E-002   4.5559503684361367E-002  -2.0214043291476927E-002
   4.4178646691106467        5.4494966322812290E-003   3.1551491858695595E-002  -2.6101995226414366E-002
   4.5160394395353274       -1.6420474629947796E-002   1.6330973895180751E-002  -3.2751448525128547E-002
   4.6142142099600090       -3.9691074833914382E-002   4.8286576338965164E-004  -4.0173940597304031E-002
   4.7123889803846897       -6.3756335894257957E-002  -1.5383798628894132E-002  -4.8372537265363821E-002
   4.8105637508093704       -8.7999302670894786E-002  -3.0659272267203184E-002  -5.7340030403691601E-002
   4.9087385212340520      -0.11181327138120213       -4.4756527266201718E-002  -6.7056744115000413E-002
   5.0069132916587327      -0.13462181207414622       -5.7133814022109652E-002  -7.7487998052036572E-002
   5.1050880620834143      -0.15589678717490205       -6.7315480346160056E-002  -8.8581306828741990E-002
   5.2032628325080950      -0.17517363832996838       -7.4910250511463744E-002 -0.10026338781850463     
   5.3014376029327757      -0.19206318745517920       -7.9626261759764366E-002 -0.11243692569541483     
   5.3996123733574573      -0.20625884815379009       -8.1282280423559311E-002 -0.12497656773023078     
   5.4977871437821380      -0.21753678463797346       -7.9814666634304879E-002 -0.13772211800366857     
   5.5959619142068187      -0.22574220019229063       -7.5279819966874870E-002 -0.15046238022541575     
   5.6941366846315002      -0.23074186658241780       -6.7852012035527209E-002 -0.16288985454689059     
   5.7923114550561809      -0.23228489594227791       -5.7816689333501044E-002 -0.17446820660877688     
   5.8904862254808616      -0.22960444863615037       -4.5559503684361360E-002 -0.18404494495178902     
   5.9886609959055432      -0.22028323450363482       -3.1551491858695581E-002 -0.18873174264493925     
   6.0868357663302239      -0.19703615029373725       -1.6330973895180748E-002 -0.18070517639855649     
   6.1850105367549055      -0.13864534619033017       -4.8286576338964579E-004 -0.13816248042694051     
   6.2831853071795862        1.5383798628894139E-002   1.5383798628894139E-002   0.0000000000000000     
 variables ="x","u","ue","error"
 zone T=           5
   0.0000000000000000       -6.1112976495521377E-003  -6.1112976495521377E-003   0.0000000000000000     
   9.8174770424681035E-002   9.9244212426125803E-003   9.8189120601981407E-003   1.0550918241443961E-004
  0.19634954084936207        2.5622633070711540E-002   2.5371786485984465E-002   2.5084658472707480E-004
  0.29452431127404310        4.0371186934417547E-002   3.9949637385776060E-002   4.2154954864148664E-004
  0.39269908169872414        5.3593036876704976E-002   5.2992246124847153E-002   6.0079075185782288E-004
  0.49087385212340517        6.4768812829888250E-002   6.3998392563734269E-002   7.7042026615398163E-004
  0.58904862254808621        7.3457214978326621E-002   7.2545116667109125E-002   9.1209831121749629E-004
  0.68722339297276724        7.9312430939414466E-002   7.8303972620737169E-002   1.0084583186772966E-003
  0.78539816339744828        8.2097888610988087E-002   8.1053650819923995E-002   1.0442377910640926E-003
  0.88357293382212931        8.1695798068544878E-002   8.0688482673512224E-002   1.0073153950326541E-003
  0.98174770424681035        7.8112098128168439E-002   7.7222501388579765E-002   8.8959673958867447E-004
   1.0799224746714913        7.1476600867132603E-002   7.0788902682161925E-002   6.8769818497067814E-004
   1.1780972450961724        6.2038313638565414E-002   6.1634926144542607E-002   4.0338749402280688E-004
   1.2762720155208536        5.0156105697942370E-002   5.0112353960453208E-002   4.3751737489161613E-005
   1.3744467859455345        3.6285068170231423E-002   3.6663992116995586E-002  -3.7892394676416336E-004
   1.4726215563702154        2.0959084627971605E-002   2.1806653617885346E-002  -8.4756898991374119E-004
   1.5707963267948966        4.7702784080850390E-003   6.1112976495521481E-003  -1.3410192414671090E-003
   1.6689710972195777       -1.1653873901634826E-002  -9.8189120601981303E-003  -1.8349618414366959E-003
   1.7671458676442586       -2.7674880522095362E-002  -2.5371786485984458E-002  -2.3030940361109045E-003
   1.8653206380689396       -4.2668083127047798E-002  -3.9949637385776053E-002  -2.7184457412717453E-003
   1.9634954084936207       -5.6047053016555083E-002  -5.2992246124847146E-002  -3.0548068917079368E-003
   2.0616701789183018       -6.7286587243294921E-002  -6.3998392563734255E-002  -3.2881946795606659E-003
   2.1598449493429825       -7.5943409691994909E-002  -7.2545116667109125E-002  -3.3982930248857846E-003