variables ="x","y","f","u","ue", "e" 
zone f=point i = 4,j = 4
0.0000000000000000 0.0000000000000000 0.0000000000000000 1.0000000000000000 1.0000000000000000 0.0000000000000000 
0.2500000000000000 0.0000000000000000 0.0625000000000000 1.0000000000000000 1.0000000000000000 0.0000000000000000 
0.5000000000000000 0.0000000000000000 0.2500000000000000 1.0000000000000000 1.0000000000000000 0.0000000000000000 
0.7500000000000000 0.0000000000000000 0.5625000000000000 1.0000000000000000 1.0000000000000000 0.0000000000000000 
1.0000000000000000 0.0000000000000000 1.0000000000000000 1.0000000000000000 1.0000000000000000 0.0000000000000000 
0.0000000000000000 0.2500000000000000 0.0625000000000000 1.0000000000000000 1.0000000000000000 0.0000000000000000 
0.2500000000000000 0.2500000000000000 0.1330618073647324 1.1322455637364672 1.0644944589178595 0.0677511048186077 
0.5000000000000000 0.2500000000000000 0.3541088915833832 1.1433208405115689 1.1331484530668263 0.0101723874447426 
0.7500000000000000 0.2500000000000000 0.7538939058881129 1.2740296536943347 1.2062302494209807 0.0677994042733541 
1.0000000000000000 0.2500000000000000 1.3642770052307251 1.2840254166877414 1.2840254166877414 0.0000000000000000 
0.0000000000000000 0.5000000000000000 0.2500000000000000 1.0000000000000000 1.0000000000000000 0.0000000000000000 
0.2500000000000000 0.5000000000000000 0.3541088915833832 1.1433210521979453 1.1331484530668263 0.0101725991311190 
0.5000000000000000 0.5000000000000000 0.6420127083438707 1.4196285267483626 1.2840254166877414 0.1356031100606212 
0.7500000000000000 0.5000000000000000 1.1821805243772885 1.4652340014993854 1.4549914146182013 0.0102425868811842 
1.0000000000000000 0.5000000000000000 2.0609015883751605 1.6487212707001282 1.6487212707001282 0.0000000000000000 
0.0000000000000000 0.7500000000000000 0.5625000000000000 1.0000000000000000 1.0000000000000000 0.0000000000000000 
0.2500000000000000 0.7500000000000000 0.7538939058881129 1.2740838454067682 1.2062302494209807 0.0678535959857876 
0.5000000000000000 0.7500000000000000 1.1821805243772885 1.4652342131857621 1.4549914146182013 0.0102427985675608 
0.7500000000000000 0.7500000000000000 1.9744364890803359 1.8229847590041517 1.7550546569602985 0.0679301020438532 
1.0000000000000000 0.7500000000000000 3.3078125259573046 2.1170000166126748 2.1170000166126748 0.0000000000000000 
0.0000000000000000 1.0000000000000000 1.0000000000000000 1.0000000000000000 1.0000000000000000 0.0000000000000000 
0.2500000000000000 1.0000000000000000 1.3642770052307251 1.2840254166877414 1.2840254166877414 0.0000000000000000 
0.5000000000000000 1.0000000000000000 2.0609015883751605 1.6487212707001282 1.6487212707001282 0.0000000000000000 
0.7500000000000000 1.0000000000000000 3.3078125259573046 2.1170000166126748 2.1170000166126748 0.0000000000000000 
1.0000000000000000 1.0000000000000000 5.4365636569180902 2.7182818284590451 2.7182818284590451 0.0000000000000000 
