variables ="x","y","f","u","ue", "e" 
zone f=point i = 33,j = 33
0.0000000000000000 0.0000000000000000 -0.0000000000000000 0.0000000000000000 0.0000000000000000 0.0000000000000000 
0.0312500000000000 0.0000000000000000 -0.0000000000000000 0.0000000000000000 0.0000000000000000 0.0000000000000000 
0.0625000000000000 0.0000000000000000 -0.0000000000000000 0.0000000000000000 0.0000000000000000 0.0000000000000000 
0.0937500000000000 0.0000000000000000 0.0000000000000000 0.0000000000000000 0.0000000000000000 0.0000000000000000 
0.1250000000000000 0.0000000000000000 0.0000000000000000 0.0000000000000000 0.0000000000000000 0.0000000000000000 
0.1562500000000000 0.0000000000000000 -0.0000000000000000 0.0000000000000000 0.0000000000000000 0.0000000000000000 
0.1875000000000000 0.0000000000000000 -0.0000000000000000 0.0000000000000000 0.0000000000000000 0.0000000000000000 
0.2187500000000000 0.0000000000000000 0.0000000000000000 0.0000000000000000 0.0000000000000000 0.0000000000000000 
0.2500000000000000 0.0000000000000000 0.0000000000000000 0.0000000000000000 0.0000000000000000 0.0000000000000000 
0.2812500000000000 0.0000000000000000 -0.0000000000000000 0.0000000000000000 0.0000000000000000 0.0000000000000000 
0.3125000000000000 0.0000000000000000 -0.0000000000000000 0.0000000000000000 0.0000000000000000 0.0000000000000000 
0.3437500000000000 0.0000000000000000 0.0000000000000000 0.0000000000000000 0.0000000000000000 0.0000000000000000 
0.3750000000000000 0.0000000000000000 0.0000000000000000 0.0000000000000000 0.0000000000000000 0.0000000000000000 
0.4062500000000000 0.0000000000000000 -0.0000000000000000 0.0000000000000000 0.0000000000000000 0.0000000000000000 
0.4375000000000000 0.0000000000000000 -0.0000000000000000 0.0000000000000000 0.0000000000000000 0.0000000000000000 
0.4687500000000000 0.0000000000000000 0.0000000000000000 0.0000000000000000 0.0000000000000000 0.0000000000000000 
0.5000000000000000 0.0000000000000000 0.0000000000000000 0.0000000000000000 0.0000000000000000 0.0000000000000000 
0.5312500000000000 0.0000000000000000 0.0000000000000000 0.0000000000000000 0.0000000000000000 0.0000000000000000 
0.5625000000000000 0.0000000000000000 0.0000000000000000 0.0000000000000000 0.0000000000000000 0.0000000000000000 
0.5937500000000000 0.0000000000000000 0.0000000000000000 -0.0000000000000000 -0.0000000000000000 0.0000000000000000 
0.6250000000000000 0.0000000000000000 0.0000000000000000 -0.0000000000000000 -0.0000000000000000 0.0000000000000000 
0.6562500000000000 0.0000000000000000 0.0000000000000000 0.0000000000000000 0.0000000000000000 0.0000000000000000 
0.6875000000000000 0.0000000000000000 0.0000000000000000 0.0000000000000000 0.0000000000000000 0.0000000000000000 
0.7187500000000000 0.0000000000000000 0.0000000000000000 -0.0000000000000000 -0.0000000000000000 0.0000000000000000 
0.7500000000000000 0.0000000000000000 0.0000000000000000 -0.0000000000000000 -0.0000000000000000 0.0000000000000000 
0.7812500000000000 0.0000000000000000 0.0000000000000000 0.0000000000000000 0.0000000000000000 0.0000000000000000 
0.8125000000000000 0.0000000000000000 0.0000000000000000 -0.0000000000000000 -0.0000000000000000 0.0000000000000000 
0.8437500000000000 0.0000000000000000 0.0000000000000000 -0.0000000000000000 -0.0000000000000000 0.0000000000000000 
0.8750000000000000 0.0000000000000000 0.0000000000000000 -0.0000000000000000 -0.0000000000000000 0.0000000000000000 
0.9062500000000000 0.0000000000000000 0.0000000000000000 0.0000000000000000 0.0000000000000000 0.0000000000000000 
0.9375000000000000 0.0000000000000000 0.0000000000000000 0.0000000000000000 0.0000000000000000 0.0000000000000000 
0.9687500000000000 0.0000000000000000 0.0000000000000000 -0.0000000000000000 -0.0000000000000000 0.0000000000000000 
1.0000000000000000 0.0000000000000000 0.0000000000000000 -0.0000000000000000 -0.0000000000000000 0.0000000000000000 
0.0000000000000000 0.0312500000000000 -0.0000000000000000 0.0000000000000000 0.0000000000000000 0.0000000000000000 
0.0312500000000000 0.0312500000000000 -22.7443244059370500 0.0430018910573067 0.0419664837443566 0.0010354073129501 
0.0625000000000000 0.0312500000000000 -5.8947463001524847 0.0748981549632786 0.0746578340503426 0.0002403209129360 
0.0937500000000000 0.0312500000000000 11.1813636001351373 0.1039161247773810 0.1044801256623696 -0.0005640008849886 
0.1250000000000000 0.0312500000000000 -10.8920709121150185 0.1383937447868642 0.1379496896414715 0.0004440551453928 
0.1562500000000000 0.0312500000000000 -32.5469292475563421 0.1675529707962936 0.1661179244107289 0.0014350463855647 
0.1875000000000000 0.0312500000000000 -14.2311764645767518 0.1808201415090669 0.1802399555017370 0.0005801860073300 
0.2187500000000000 0.0312500000000000 4.6314724490008299 0.1871384955887484 0.1874354661825449 -0.0002969705937964 
0.2500000000000000 0.0312500000000000 -15.4037144062425462 0.1957183108251709 0.1950903220161282 0.0006279888090427 
0.2812500000000000 0.0312500000000000 -34.8469451553566003 0.1967767811366724 0.1952479661825449 0.0015288149541275 
0.3125000000000000 0.0312500000000000 -14.2311764645767571 0.1808201415090371 0.1802399555017370 0.0005801860073001 
0.3437500000000000 0.0312500000000000 6.9314883568010845 0.1579146852483095 0.1583054244107289 -0.0003907391624194 
0.3750000000000000 0.0312500000000000 -10.8920709121150114 0.1383937447868029 0.1379496896414715 0.0004440551453314 
0.4062500000000000 0.0312500000000000 -28.2970540042222964 0.1135544103252420 0.1122926256623696 0.0012617846628724 
0.4375000000000000 0.0312500000000000 -5.8947463001525007 0.0748981549631833 0.0746578340503426 0.0002403209128407 
0.4687500000000000 0.0312500000000000 16.7340931984203749 0.0333636055092546 0.0341539837443567 -0.0007903782351021 
0.5000000000000000 0.0312500000000000 0.0000000000000175 -0.0000000000001317 0.0000000000000000 -0.0000000000001317 
0.5312500000000000 0.0312500000000000 -16.7340931984203820 -0.0333636055095169 -0.0341539837443566 0.0007903782348397 
0.5625000000000000 0.0312500000000000 5.8947463001524589 -0.0748981549634425 -0.0746578340503426 -0.0002403209130999 
0.5937500000000000 0.0312500000000000 28.2970540042222929 -0.1135544103254960 -0.1122926256623696 -0.0012617846631265 
0.6250000000000000 0.0312500000000000 10.8920709121150487 -0.1383937447870498 -0.1379496896414715 -0.0004440551455783 
0.6562500000000000 0.0312500000000000 -6.9314883568010881 -0.1579146852485470 -0.1583054244107289 0.0003907391621819 
0.6875000000000000 0.0312500000000000 14.2311764645766470 -0.1808201415092632 -0.1802399555017369 -0.0005801860075264 
0.7187500000000000 0.0312500000000000 34.8469451553566003 -0.1967767811368853 -0.1952479661825448 -0.0015288149543404 
0.7500000000000000 0.0312500000000000 15.4037144062425835 -0.1957183108253683 -0.1950903220161282 -0.0006279888092401 
0.7812500000000000 0.0312500000000000 -4.6314724490008299 -0.1871384955889283 -0.1874354661825449 0.0002969705936166 
0.8125000000000000 0.0312500000000000 14.2311764645767820 -0.1808201415092271 -0.1802399555017369 -0.0005801860074902 
0.8437500000000000 0.0312500000000000 32.5469292475563492 -0.1675529707964321 -0.1661179244107289 -0.0014350463857032 
0.8750000000000000 0.0312500000000000 10.8920709121150594 -0.1383937447869789 -0.1379496896414715 -0.0004440551455073 
0.9062500000000000 0.0312500000000000 -11.1813636001351373 -0.1039161247774697 -0.1044801256623696 0.0005640008848999 
0.9375000000000000 0.0312500000000000 5.8947463001523852 -0.0748981549633393 -0.0746578340503427 -0.0002403209129966 
0.9687500000000000 0.0312500000000000 22.7443244059370571 -0.0430018910573378 -0.0419664837443567 -0.0010354073129811 
1.0000000000000000 0.0312500000000000 0.0000000000000425 -0.0000000000000001 -0.0000000000000001 0.0000000000000000 
0.0000000000000000 0.0625000000000000 -0.0000000000000000 0.0000000000000000 0.0000000000000000 0.0000000000000000 
0.0312500000000000 0.0625000000000000 -5.8947463001524847 0.0748981549632786 0.0746578340503426 0.0002403209129360 
0.0625000000000000 0.0625000000000000 -11.5629608058019162 0.1469180158346886 0.1464466094067262 0.0004714064279624 
0.0937500000000000 0.0625000000000000 -16.7868172122675041 0.2132918997501445 0.2126075236918141 0.0006843760583304 
0.1250000000000000 0.0625000000000000 -21.3655656474212101 0.2714690955736771 0.2705980500730985 0.0008710455005786 
0.1562500000000000 0.0625000000000000 -25.1232473766917757 0.3192138862959343 0.3181896451432085 0.0010242411527258 
0.1875000000000000 0.0625000000000000 -27.9154567985555175 0.3546914663850457 0.3535533905932738 0.0011380757917719 
0.2187500000000000 0.0625000000000000 -29.6348908708193015 0.3765384523342420 0.3753302775178652 0.0012081748163768 
0.2500000000000000 0.0625000000000000 -30.2154727063557758 0.3839152767254254 0.3826834323650898 0.0012318443603356 
0.2812500000000000 0.0625000000000000 -29.6348908708193086 0.3765384523342127 0.3753302775178652 0.0012081748163475 
0.3125000000000000 0.0625000000000000 -27.9154567985555175 0.3546914663849869 0.3535533905932738 0.0011380757917131 
0.3437500000000000 0.0625000000000000 -25.1232473766917757 0.3192138862958451 0.3181896451432085 0.0010242411526366 
0.3750000000000000 0.0625000000000000 -21.3655656474212137 0.2714690955735565 0.2705980500730985 0.0008710455004580 
0.4062500000000000 0.0625000000000000 -16.7868172122675112 0.2132918997499914 0.2126075236918141 0.0006843760581773 
0.4375000000000000 0.0625000000000000 -11.5629608058019198 0.1469180158345016 0.1464466094067263 0.0004714064277753 
0.4687500000000000 0.0625000000000000 -5.8947463001524900 0.0748981549630565 0.0746578340503427 0.0002403209127138 
0.5000000000000000 0.0625000000000000 -0.0000000000000037 -0.0000000000002576 0.0000000000000000 -0.0000000000002576 
0.5312500000000000 0.0625000000000000 5.8947463001524829 -0.0748981549635696 -0.0746578340503426 -0.0002403209132270 
0.5625000000000000 0.0625000000000000 11.5629608058019127 -0.1469180158350086 -0.1464466094067262 -0.0004714064282824 
0.5937500000000000 0.0625000000000000 16.7868172122675041 -0.2132918997504882 -0.2126075236918140 -0.0006843760586742 
0.6250000000000000 0.0625000000000000 21.3655656474212101 -0.2714690955740393 -0.2705980500730985 -0.0008710455009408 
0.6562500000000000 0.0625000000000000 25.1232473766917686 -0.3192138862963096 -0.3181896451432085 -0.0010242411531011 
0.6875000000000000 0.0625000000000000 27.9154567985555104 -0.3546914663854291 -0.3535533905932737 -0.0011380757921555 
0.7187500000000000 0.0625000000000000 29.6348908708193051 -0.3765384523346287 -0.3753302775178652 -0.0012081748167636 
0.7500000000000000 0.0625000000000000 30.2154727063557758 -0.3839152767258110 -0.3826834323650898 -0.0012318443607213 
0.7812500000000000 0.0625000000000000 29.6348908708193015 -0.3765384523345932 -0.3753302775178652 -0.0012081748167280 
0.8125000000000000 0.0625000000000000 27.9154567985555104 -0.3546914663853584 -0.3535533905932737 -0.0011380757920847 
0.8437500000000000 0.0625000000000000 25.1232473766917828 -0.3192138862962043 -0.3181896451432086 -0.0010242411529958 
0.8750000000000000 0.0625000000000000 21.3655656474212137 -0.2714690955739004 -0.2705980500730986 -0.0008710455008019 
0.9062500000000000 0.0625000000000000 16.7868172122675041 -0.2132918997503171 -0.2126075236918141 -0.0006843760585031 
0.9375000000000000 0.0625000000000000 11.5629608058019340 -0.1469180158348069 -0.1464466094067265 -0.0004714064280804 
0.9687500000000000 0.0625000000000000 5.8947463001524989 -0.0748981549633390 -0.0746578340503428 -0.0002403209129962 
1.0000000000000000 0.0625000000000000 0.0000000000000074 -0.0000000000000001 -0.0000000000000001 0.0000000000000000 
0.0000000000000000 0.0937500000000000 0.0000000000000000 0.0000000000000000 0.0000000000000000 0.0000000000000000 
0.0312500000000000 0.0937500000000000 11.1813636001351373 0.1039161247773810 0.1044801256623696 -0.0005640008849886 
0.0625000000000000 0.0937500000000000 -16.7868172122675041 0.2132918997501445 0.2126075236918141 0.0006843760583304 
0.0937500000000000 0.0937500000000000 -44.1098900533582565 0.3144709866309857 0.3125645338174551 0.0019064528135306 
0.1250000000000000 0.0937500000000000 -31.0179936768442523 0.3941120412592166 0.3928474791935510 0.0012645620656656 
0.1562500000000000 0.0937500000000000 -16.7340931984203749 0.4586075911624322 0.4580335162556433 0.0005740749067889 
0.1875000000000000 0.0937500000000000 -40.5269617829343218 0.5149321971211132 0.5132799671593367 0.0016522299617765 
0.2187500000000000 0.0937500000000000 -62.7624019539121178 0.5514682475217272 0.5488013567758185 0.0026668907459086 
0.2500000000000000 0.0937500000000000 -43.8660673353960533 0.5573585938432889 0.5555702330196022 0.0017883608236867 
0.2812500000000000 0.0937500000000000 -23.2839843495546859 0.5418299619737454 0.5409888567758185 0.0008411051979269 
0.3125000000000000 0.0937500000000000 -40.5269617829343147 0.5149321971210268 0.5132799671593367 0.0016522299616901 
0.3437500000000000 0.0937500000000000 -56.2125108027778211 0.4682458767102403 0.4658460162556434 0.0023998604545968 
0.3750000000000000 0.0937500000000000 -31.0179936768442666 0.3941120412590400 0.3928474791935511 0.0012645620654889 
0.4062500000000000 0.0937500000000000 -4.6314724490008246 0.3048327010828228 0.3047520338174551 0.0000806672653677 
0.4375000000000000 0.0937500000000000 -16.7868172122674935 0.2132918997498712 0.2126075236918142 0.0006843760580571 
0.4687500000000000 0.0937500000000000 -28.2970540042223107 0.1135544103249960 0.1122926256623698 0.0012617846626262 
0.5000000000000000 0.0937500000000000 -0.0000000000000247 -0.0000000000003751 0.0000000000000001 -0.0000000000003751 
0.5312500000000000 0.0937500000000000 28.2970540042223000 -0.1135544103257431 -0.1122926256623697 -0.0012617846633735 
0.5625000000000000 0.0937500000000000 16.7868172122675219 -0.2132918997506095 -0.2126075236918140 -0.0006843760587954 
0.5937500000000000 0.0937500000000000 4.6314724490008174 -0.3048327010835462 -0.3047520338174549 -0.0000806672660913 
0.6250000000000000 0.0937500000000000 31.0179936768442239 -0.3941120412597427 -0.3928474791935510 -0.0012645620661917 
0.6562500000000000 0.0937500000000000 56.2125108027778069 -0.4682458767109164 -0.4658460162556433 -0.0023998604552731 
0.6875000000000000 0.0937500000000000 40.5269617829344213 -0.5149321971216704 -0.5132799671593365 -0.0016522299623338 
0.7187500000000000 0.0937500000000000 23.2839843495546788 -0.5418299619743506 -0.5409888567758185 -0.0008411051985321 
0.7500000000000000 0.0937500000000000 43.8660673353960178 -0.5573585938438498 -0.5555702330196022 -0.0017883608242476 
0.7812500000000000 0.0937500000000000 62.7624019539121178 -0.5514682475222378 -0.5488013567758185 -0.0026668907464192 
0.8125000000000000 0.0937500000000000 40.5269617829342863 -0.5149321971215675 -0.5132799671593367 -0.0016522299622308 
0.8437500000000000 0.0937500000000000 16.7340931984203891 -0.4586075911628242 -0.4580335162556435 -0.0005740749071808 
0.8750000000000000 0.0937500000000000 31.0179936768442204 -0.3941120412595405 -0.3928474791935511 -0.0012645620659894 
0.9062500000000000 0.0937500000000000 44.1098900533582565 -0.3144709866312360 -0.3125645338174551 -0.0019064528137809 
0.9375000000000000 0.0937500000000000 16.7868172122676391 -0.2132918997503157 -0.2126075236918145 -0.0006843760585013 
0.9687500000000000 0.0937500000000000 -11.1813636001351160 -0.1039161247774685 -0.1044801256623699 0.0005640008849013 
1.0000000000000000 0.0937500000000000 -0.0000000000000279 -0.0000000000000001 -0.0000000000000001 0.0000000000000000 
0.0000000000000000 0.1250000000000000 0.0000000000000000 0.0000000000000000 0.0000000000000000 0.0000000000000000 
0.0312500000000000 0.1250000000000000 -10.8920709121150185 0.1383937447868642 0.1379496896414715 0.0004440551453928 
0.0625000000000000 0.1250000000000000 -21.3655656474212101 0.2714690955736771 0.2705980500730985 0.0008710455005786 
0.0937500000000000 0.1250000000000000 -31.0179936768442523 0.3941120412592166 0.3928474791935510 0.0012645620656656 
0.1250000000000000 0.1250000000000000 -39.4784176043574249 0.5016094822197420 0.4999999999999999 0.0016094822197421 
0.1562500000000000 0.1250000000000000 -46.4217080830867985 0.5898303520843977 0.5879378012096793 0.0018925508747184 
0.1875000000000000 0.1250000000000000 -51.5810383537769823 0.6553843722991169 0.6532814824381882 0.0021028898609288 
0.2187500000000000 0.1250000000000000 -54.7581382475110772 0.6957523386301644 0.6935199226610737 0.0022324159690907 
0.2500000000000000 0.1250000000000000 -55.8309135971110280 0.7093829327700523 0.7071067811865475 0.0022761515835048 
0.2812500000000000 0.1250000000000000 -54.7581382475110630 0.6957523386301087 0.6935199226610737 0.0022324159690350 
0.3125000000000000 0.1250000000000000 -51.5810383537769823 0.6553843722990050 0.6532814824381882 0.0021028898608169 
0.3437500000000000 0.1250000000000000 -46.4217080830868269 0.5898303520842284 0.5879378012096794 0.0018925508745490 
0.3750000000000000 0.1250000000000000 -39.4784176043574320 0.5016094822195135 0.5000000000000000 0.0016094822195135 
0.4062500000000000 0.1250000000000000 -31.0179936768442452 0.3941120412589271 0.3928474791935510 0.0012645620653761 
0.4375000000000000 0.1250000000000000 -21.3655656474212172 0.2714690955733245 0.2705980500730986 0.0008710455002259 
0.4687500000000000 0.1250000000000000 -10.8920709121150487 0.1383937447864469 0.1379496896414717 0.0004440551449752 
0.5000000000000000 0.1250000000000000 -0.0000000000000068 -0.0000000000004824 0.0000000000000001 -0.0000000000004824 
0.5312500000000000 0.1250000000000000 10.8920709121150345 -0.1383937447874078 -0.1379496896414716 -0.0004440551459363 
0.5625000000000000 0.1250000000000000 21.3655656474212030 -0.2714690955742738 -0.2705980500730984 -0.0008710455011754 
0.5937500000000000 0.1250000000000000 31.0179936768442346 -0.3941120412598572 -0.3928474791935508 -0.0012645620663064 
0.6250000000000000 0.1250000000000000 39.4784176043574249 -0.5016094822204169 -0.4999999999999999 -0.0016094822204170 
0.6562500000000000 0.1250000000000000 46.4217080830868127 -0.5898303520850974 -0.5879378012096793 -0.0018925508754181 
0.6875000000000000 0.1250000000000000 51.5810383537769681 -0.6553843722998320 -0.6532814824381881 -0.0021028898616440 
0.7187500000000000 0.1250000000000000 54.7581382475110559 -0.6957523386308861 -0.6935199226610735 -0.0022324159698126 
0.7500000000000000 0.1250000000000000 55.8309135971110280 -0.7093829327707725 -0.7071067811865475 -0.0022761515842250 
0.7812500000000000 0.1250000000000000 54.7581382475110772 -0.6957523386308196 -0.6935199226610737 -0.0022324159697460 
0.8125000000000000 0.1250000000000000 51.5810383537769681 -0.6553843722996997 -0.6532814824381881 -0.0021028898615116 
0.8437500000000000 0.1250000000000000 46.4217080830868127 -0.5898303520849003 -0.5879378012096794 -0.0018925508752209 
0.8750000000000000 0.1250000000000000 39.4784176043574320 -0.5016094822201570 -0.5000000000000001 -0.0016094822201569 
0.9062500000000000 0.1250000000000000 31.0179936768442523 -0.3941120412595369 -0.3928474791935510 -0.0012645620659859 
0.9375000000000000 0.1250000000000000 21.3655656474212421 -0.2714690955738961 -0.2705980500730989 -0.0008710455007972 
0.9687500000000000 0.1250000000000000 10.8920709121150434 -0.1383937447869760 -0.1379496896414718 -0.0004440551455042 
1.0000000000000000 0.1250000000000000 0.0000000000000137 -0.0000000000000002 -0.0000000000000002 0.0000000000000000 
0.0000000000000000 0.1562500000000000 -0.0000000000000000 0.0000000000000000 0.0000000000000000 0.0000000000000000 
0.0312500000000000 0.1562500000000000 -32.5469292475563421 0.1675529707962936 0.1661179244107289 0.0014350463855647 
0.0625000000000000 0.1562500000000000 -25.1232473766917792 0.3192138862959343 0.3181896451432085 0.0010242411527258 
0.0937500000000000 0.1562500000000000 -16.7340931984203749 0.4586075911624322 0.4580335162556433 0.0005740749067889 
0.1250000000000000 0.1562500000000000 -46.4217080830867985 0.5898303520843977 0.5879378012096793 0.0018925508747184 
0.1562500000000000 0.1562500000000000 -74.3253627597140394 0.6983862633564279 0.6952479661825449 0.0031382971738830 
0.1875000000000000 0.1562500000000000 -60.6528845476635681 0.7706504935934512 0.7681777567114163 0.0024727368820349 
0.2187500000000000 0.1562500000000000 -44.6495499969758995 0.8132990575474455 0.8115869068489171 0.0017121506985284 
0.2500000000000000 0.1562500000000000 -65.6502091596260868 0.8341460834169884 0.8314696123025452 0.0026764711144431 
0.2812500000000000 0.1562500000000000 -84.1279676013333244 0.8229373430953171 0.8193994068489171 0.0035379362464000 
0.3125000000000000 0.1562500000000000 -60.6528845476635752 0.7706504935933162 0.7681777567114163 0.0024727368818999 
0.3437500000000000 0.1562500000000000 -34.8469451553566145 0.6887479778082848 0.6874354661825450 0.0013125116257398 
0.3750000000000000 0.1562500000000000 -46.4217080830867985 0.5898303520841224 0.5879378012096794 0.0018925508744430 
0.4062500000000000 0.1562500000000000 -56.2125108027778069 0.4682458767100224 0.4658460162556433 0.0023998604543791 
0.4375000000000000 0.1562500000000000 -25.1232473766917970 0.3192138862955103 0.3181896451432086 0.0010242411523017 
0.4687500000000000 0.1562500000000000 6.9314883568010650 0.1579146852478538 0.1583054244107292 -0.0003907391628754 
0.5000000000000000 0.1562500000000000 0.0000000000000113 -0.0000000000005782 0.0000000000000001 -0.0000000000005783 
0.5312500000000000 0.1562500000000000 -6.9314883568010810 -0.1579146852490055 -0.1583054244107290 0.0003907391617235 
0.5625000000000000 0.1562500000000000 25.1232473766917437 -0.3192138862966481 -0.3181896451432084 -0.0010242411534397 
0.5937500000000000 0.1562500000000000 56.2125108027777998 -0.4682458767111372 -0.4658460162556431 -0.0023998604554941 
0.6250000000000000 0.1562500000000000 46.4217080830868269 -0.5898303520852048 -0.5879378012096793 -0.0018925508755255 
0.6562500000000000 0.1562500000000000 34.8469451553566003 -0.6887479778093258 -0.6874354661825449 -0.0013125116267809 
0.6875000000000000 0.1562500000000000 60.6528845476634473 -0.7706504935943066 -0.7681777567114161 -0.0024727368828905 
0.7187500000000000 0.1562500000000000 84.1279676013333244 -0.8229373430962479 -0.8193994068489170 -0.0035379362473309 
0.7500000000000000 0.1562500000000000 65.6502091596261295 -0.8341460834178505 -0.8314696123025452 -0.0026764711153052 
0.7812500000000000 0.1562500000000000 44.6495499969758995 -0.8132990575482294 -0.8115869068489171 -0.0017121506993123 
0.8125000000000000 0.1562500000000000 60.6528845476635823 -0.7706504935941481 -0.7681777567114162 -0.0024727368827319 
0.8437500000000000 0.1562500000000000 74.3253627597140394 -0.6983862633570286 -0.6952479661825450 -0.0031382971744836 
0.8750000000000000 0.1562500000000000 46.4217080830868554 -0.5898303520848934 -0.5879378012096795 -0.0018925508752139 
0.9062500000000000 0.1562500000000000 16.7340931984203749 -0.4586075911628145 -0.4580335162556433 -0.0005740749071712 
0.9375000000000000 0.1562500000000000 25.1232473766917046 -0.3192138862961953 -0.3181896451432090 -0.0010242411529863 
0.9687500000000000 0.1562500000000000 32.5469292475563776 -0.1675529707964268 -0.1661179244107293 -0.0014350463856975 
1.0000000000000000 0.1562500000000000 0.0000000000000548 -0.0000000000000002 -0.0000000000000002 0.0000000000000000 
0.0000000000000000 0.1875000000000000 -0.0000000000000000 0.0000000000000000 0.0000000000000000 0.0000000000000000 
0.0312500000000000 0.1875000000000000 -14.2311764645767518 0.1808201415090669 0.1802399555017370 0.0005801860073300 
0.0625000000000000 0.1875000000000000 -27.9154567985555175 0.3546914663850457 0.3535533905932738 0.0011380757917719 
0.0937500000000000 0.1875000000000000 -40.5269617829343147 0.5149321971211132 0.5132799671593367 0.0016522299617765 
0.1250000000000000 0.1875000000000000 -51.5810383537769823 0.6553843722991169 0.6532814824381882 0.0021028898609288 
0.1562500000000000 0.1875000000000000 -60.6528845476635610 0.7706504935934512 0.7681777567114163 0.0024727368820349 
0.1875000000000000 0.1875000000000000 -67.3938744029129424 0.8563009486047576 0.8535533905932737 0.0027475580114839 
0.2187500000000000 0.1875000000000000 -71.5449554597785635 0.9090442383802776 0.9061274463528878 0.0029167920273898 
0.2500000000000000 0.1875000000000000 -72.9466040011981960 0.9268534678727136 0.9238795325112867 0.0029739353614269 
0.2812500000000000 0.1875000000000000 -71.5449554597785919 0.9090442383802002 0.9061274463528878 0.0029167920273124 
0.3125000000000000 0.1875000000000000 -67.3938744029129424 0.8563009486046019 0.8535533905932737 0.0027475580113282 
0.3437500000000000 0.1875000000000000 -60.6528845476635610 0.7706504935932159 0.7681777567114164 0.0024727368817995 
0.3750000000000000 0.1875000000000000 -51.5810383537769823 0.6553843722988002 0.6532814824381883 0.0021028898606119 
0.4062500000000000 0.1875000000000000 -40.5269617829343289 0.5149321971207126 0.5132799671593367 0.0016522299613759 
0.4375000000000000 0.1875000000000000 -27.9154567985555246 0.3546914663845591 0.3535533905932738 0.0011380757912852 
0.4687500000000000 0.1875000000000000 -14.2311764645767642 0.1808201415084927 0.1802399555017373 0.0005801860067554 
0.5000000000000000 0.1875000000000000 -0.0000000000000089 -0.0000000000006617 0.0000000000000001 -0.0000000000006618 
0.5312500000000000 0.1875000000000000 14.2311764645767465 -0.1808201415098108 -0.1802399555017370 -0.0005801860080737 
0.5625000000000000 0.1875000000000000 27.9154567985555069 -0.3546914663858612 -0.3535533905932737 -0.0011380757925875 
0.5937500000000000 0.1875000000000000 40.5269617829343218 -0.5149321971219881 -0.5132799671593365 -0.0016522299626516 
0.6250000000000000 0.1875000000000000 51.5810383537769823 -0.6553843723000388 -0.6532814824381882 -0.0021028898618506 
0.6562500000000000 0.1875000000000000 60.6528845476635468 -0.7706504935944070 -0.7681777567114163 -0.0024727368829907 
0.6875000000000000 0.1875000000000000 67.3938744029129282 -0.8563009486057348 -0.8535533905932735 -0.0027475580124613 
0.7187500000000000 0.1875000000000000 71.5449554597785919 -0.9090442383812645 -0.9061274463528877 -0.0029167920283768 
0.7500000000000000 0.1875000000000000 72.9466040011981960 -0.9268534678736988 -0.9238795325112867 -0.0029739353624121 
0.7812500000000000 0.1875000000000000 71.5449554597785635 -0.9090442383811733 -0.9061274463528878 -0.0029167920282855 
0.8125000000000000 0.1875000000000000 67.3938744029129282 -0.8563009486055533 -0.8535533905932736 -0.0027475580122797 
0.8437500000000000 0.1875000000000000 60.6528845476635752 -0.7706504935941367 -0.7681777567114165 -0.0024727368827202 
0.8750000000000000 0.1875000000000000 51.5810383537769894 -0.6553843722996824 -0.6532814824381884 -0.0021028898614940 
0.9062500000000000 0.1875000000000000 40.5269617829343147 -0.5149321971215489 -0.5132799671593367 -0.0016522299622123 
0.9375000000000000 0.1875000000000000 27.9154567985555602 -0.3546914663853432 -0.3535533905932743 -0.0011380757920688 
0.9687500000000000 0.1875000000000000 14.2311764645767855 -0.1808201415092185 -0.1802399555017374 -0.0005801860074811 
1.0000000000000000 0.1875000000000000 0.0000000000000179 -0.0000000000000002 -0.0000000000000002 0.0000000000000000 
0.0000000000000000 0.2187500000000000 0.0000000000000000 0.0000000000000000 0.0000000000000000 0.0000000000000000 
0.0312500000000000 0.2187500000000000 4.6314724490008317 0.1871384955887484 0.1874354661825449 -0.0002969705937964 
0.0625000000000000 0.2187500000000000 -29.6348908708193015 0.3765384523342420 0.3753302775178652 0.0012081748163768 
0.0937500000000000 0.2187500000000000 -62.7624019539121107 0.5514682475217272 0.5488013567758185 0.0026668907459086 
0.1250000000000000 0.2187500000000000 -54.7581382475110772 0.6957523386301644 0.6935199226610737 0.0022324159690907 
0.1562500000000000 0.2187500000000000 -44.6495499969758995 0.8132990575474455 0.8115869068489171 0.0017121506985284 
0.1875000000000000 0.2187500000000000 -71.5449554597785635 0.9090442383802776 0.9061274463528878 0.0029167920273898 
0.2187500000000000 0.2187500000000000 -95.6909284071352602 0.9698553589300268 0.9658460162556434 0.0040093426743835 
0.2500000000000000 0.2187500000000000 -77.4397017599310828 0.9839423933434917 0.9807852804032304 0.0031571129402612 
0.2812500000000000 0.2187500000000000 -56.2125108027778211 0.9602170733820018 0.9580335162556434 0.0021835571263584 
0.3125000000000000 0.2187500000000000 -71.5449554597785635 0.9090442383801043 0.9061274463528878 0.0029167920272165 
0.3437500000000000 0.2187500000000000 -84.1279676013333528 0.8229373430951225 0.8193994068489172 0.0035379362462052 
0.3750000000000000 0.2187500000000000 -54.7581382475110914 0.6957523386298120 0.6935199226610738 0.0022324159687382 
0.4062500000000000 0.2187500000000000 -23.2839843495546788 0.5418299619733432 0.5409888567758185 0.0008411051975247 
0.4375000000000000 0.2187500000000000 -29.6348908708192944 0.3765384523337018 0.3753302775178654 0.0012081748158365 
0.4687500000000000 0.2187500000000000 -34.8469451553566287 0.1967767811360507 0.1952479661825452 0.0015288149535055 
0.5000000000000000 0.2187500000000000 -0.0000000000000288 -0.0000000000007326 0.0000000000000001 -0.0000000000007327 
0.5312500000000000 0.2187500000000000 34.8469451553566074 -0.1967767811375099 -0.1952479661825450 -0.0015288149549650 
0.5625000000000000 0.2187500000000000 29.6348908708193157 -0.3765384523351433 -0.3753302775178651 -0.0012081748172781 
0.5937500000000000 0.2187500000000000 23.2839843495546717 -0.5418299619747552 -0.5409888567758184 -0.0008411051989368 
0.6250000000000000 0.2187500000000000 54.7581382475110487 -0.6957523386311828 -0.6935199226610737 -0.0022324159701091 
0.6562500000000000 0.2187500000000000 84.1279676013333244 -0.8229373430964404 -0.8193994068489171 -0.0035379362475233 
0.6875000000000000 0.2187500000000000 71.5449554597786630 -0.9090442383813577 -0.9061274463528876 -0.0029167920284702 