variables ="x","y","f","u","ue", "e" 
zone f=point i = 16,j = 16
0.0000000000000000 0.0000000000000000 0.0000000000000000 1.0000000000000000 1.0000000000000000 0.0000000000000000 
0.0625000000000000 0.0000000000000000 0.0039062500000000 1.0000000000000000 1.0000000000000000 0.0000000000000000 
0.1250000000000000 0.0000000000000000 0.0156250000000000 1.0000000000000000 1.0000000000000000 0.0000000000000000 
0.1875000000000000 0.0000000000000000 0.0351562500000000 1.0000000000000000 1.0000000000000000 0.0000000000000000 
0.2500000000000000 0.0000000000000000 0.0625000000000000 1.0000000000000000 1.0000000000000000 0.0000000000000000 
0.3125000000000000 0.0000000000000000 0.0976562500000000 1.0000000000000000 1.0000000000000000 0.0000000000000000 
0.3750000000000000 0.0000000000000000 0.1406250000000000 1.0000000000000000 1.0000000000000000 0.0000000000000000 
0.4375000000000000 0.0000000000000000 0.1914062500000000 1.0000000000000000 1.0000000000000000 0.0000000000000000 
0.5000000000000000 0.0000000000000000 0.2500000000000000 1.0000000000000000 1.0000000000000000 0.0000000000000000 
0.5625000000000000 0.0000000000000000 0.3164062500000000 1.0000000000000000 1.0000000000000000 0.0000000000000000 
0.6250000000000000 0.0000000000000000 0.3906250000000000 1.0000000000000000 1.0000000000000000 0.0000000000000000 
0.6875000000000000 0.0000000000000000 0.4726562500000000 1.0000000000000000 1.0000000000000000 0.0000000000000000 
0.7500000000000000 0.0000000000000000 0.5625000000000000 1.0000000000000000 1.0000000000000000 0.0000000000000000 
0.8125000000000000 0.0000000000000000 0.6601562500000000 1.0000000000000000 1.0000000000000000 0.0000000000000000 
0.8750000000000000 0.0000000000000000 0.7656250000000000 1.0000000000000000 1.0000000000000000 0.0000000000000000 
0.9375000000000000 0.0000000000000000 0.8789062500000000 1.0000000000000000 1.0000000000000000 0.0000000000000000 
1.0000000000000000 0.0000000000000000 1.0000000000000000 1.0000000000000000 1.0000000000000000 0.0000000000000000 
0.0000000000000000 0.0625000000000000 0.0039062500000000 1.0000000000000000 1.0000000000000000 0.0000000000000000 
0.0625000000000000 0.0625000000000000 0.0078430772604558 1.0039140431184705 1.0039138893383475 0.0000001537801231 
0.1250000000000000 0.0625000000000000 0.0196844354923134 1.0078434039238355 1.0078430972064480 0.0000003067173875 
0.1875000000000000 0.0625000000000000 0.0395229563890364 1.0117881439419922 1.0117876835593316 0.0000004603826607 
0.2500000000000000 0.0625000000000000 0.0674519962733346 1.0157483249676653 1.0157477085866857 0.0000006163809796 
0.3125000000000000 0.0625000000000000 0.1035656408224927 1.0197240086359038 1.0197232327137742 0.0000007759221297 
0.3750000000000000 0.0625000000000000 0.1479587098214346 1.0237152583116820 1.0237143166023579 0.0000009417093241 
0.4375000000000000 0.0625000000000000 0.2007267619436761 1.0277221351079842 1.0277210211516217 0.0000011139563625 
0.5000000000000000 0.0625000000000000 0.2619660995603191 1.0317447007953078 1.0317434074991028 0.0000012932962050 
0.5625000000000000 0.0625000000000000 0.3317737735772389 1.0357830104364778 1.0357815370216239 0.0000014734148539 
0.6250000000000000 0.0625000000000000 0.4102475883006220 1.0398371192639417 1.0398354713362301 0.0000016479277116 
0.6875000000000000 0.0625000000000000 0.4974861063310065 1.0439070690554060 1.0439052723011284 0.0000017967542776 
0.7500000000000000 0.0625000000000000 0.5935886534859834 1.0479928952490136 1.0479910020166328 0.0000018932323809 
0.8125000000000000 0.0625000000000000 0.6986553237517136 1.0520946081280289 1.0520927228261099 0.0000018853019190 
0.8750000000000000 0.0625000000000000 0.8127869842634203 1.0562121900786978 1.0562104973169320 0.0000016927617659 
0.9375000000000000 0.0625000000000000 0.9360852803150137 1.0603455529518080 1.0603443883214314 0.0000011646303766 
1.0000000000000000 0.0625000000000000 1.0686526403980074 1.0644944589178595 1.0644944589178595 0.0000000000000000 
0.0000000000000000 0.1250000000000000 0.0156250000000000 1.0000000000000000 1.0000000000000000 0.0000000000000000 
0.0625000000000000 0.1250000000000000 0.0196844354923134 1.0078434039238355 1.0078430972064480 0.0000003067173875 
0.1250000000000000 0.1250000000000000 0.0317421158933339 1.0157483207142386 1.0157477085866857 0.0000006121275529 
0.1875000000000000 0.1250000000000000 0.0519854926399635 1.0237152339266729 1.0237143166023579 0.0000009173243150 
0.2500000000000000 0.1250000000000000 0.0806049537108674 1.0317446315312631 1.0317434074991028 0.0000012240321603 
0.3125000000000000 0.1250000000000000 0.1177938619873073 1.0398370054210280 1.0398354713362301 0.0000015340847979 
0.3750000000000000 0.1250000000000000 0.1637485940650989 1.0479928533032965 1.0479910020166328 0.0000018512866637 
0.4375000000000000 0.1250000000000000 0.2186685795226461 1.0562126725616523 1.0562104973169320 0.0000021752447203 
0.5000000000000000 0.1250000000000000 0.2827563406500564 1.0644969610035142 1.0644944589178595 0.0000025020856547 
0.5625000000000000 0.1250000000000000 0.3562175326443929 1.0728462162441226 1.0728433924348775 0.0000028238092451 
0.6250000000000000 0.1250000000000000 0.4392609842761723 1.0812609258753814 1.0812578074490395 0.0000031184263418 
0.6875000000000000 0.1250000000000000 0.5320987390322721 1.0897415699470752 1.0897382175380932 0.0000033524089820 
0.7500000000000000 0.1250000000000000 0.6349460967404618 1.0982886077891818 1.0982851403078258 0.0000034674813560 
0.8125000000000000 0.1250000000000000 0.7480216556808310 1.1069024722051213 1.1068990974236574 0.0000033747814638 
0.8750000000000000 0.1250000000000000 0.8715473551894380 1.1155835472499767 1.1155806146424807 0.0000029326074960 
0.9375000000000000 0.1250000000000000 1.0057485187595621 1.1243321458554350 1.1243302218447506 0.0000019240106843 
1.0000000000000000 0.1250000000000000 1.1508538976459954 1.1331484530668263 1.1331484530668263 0.0000000000000000 
0.0000000000000000 0.1875000000000000 0.0351562500000000 1.0000000000000000 1.0000000000000000 0.0000000000000000 
0.0625000000000000 0.1875000000000000 0.0395229563890364 1.0117881439419922 1.0117876835593316 0.0000004603826607 
0.1250000000000000 0.1875000000000000 0.0519854926399635 1.0237152339266731 1.0237143166023579 0.0000009173243152 
0.1875000000000000 0.1875000000000000 0.0728283893218329 1.0357829067651085 1.0357815370216239 0.0000013697434846 
0.2500000000000000 0.1875000000000000 0.1023428712906868 1.0479928221236885 1.0479910020166328 0.0000018201070557 
0.3125000000000000 0.1875000000000000 0.1408269890739401 1.0603466596560807 1.0603443883214314 0.0000022713346493 
0.3750000000000000 0.1875000000000000 0.1885857525764433 1.0728461183881828 1.0728433924348775 0.0000027259533053 
0.4375000000000000 0.1875000000000000 0.2459312671465232 1.0854929112552358 1.0854897308536195 0.0000031804016163 
0.5000000000000000 0.1875000000000000 0.3131828720409034 1.0982887730019184 1.0982851403078258 0.0000036326940926 
0.5625000000000000 0.1875000000000000 0.3906672813280162 1.1112354385312884 1.1112313779996905 0.0000040605315978 
0.6250000000000000 0.1875000000000000 0.4787187272698352 1.1243346618051278 1.1243302218447506 0.0000044399603771 
0.6875000000000000 0.1875000000000000 0.5776791062229940 1.1375881849645919 1.1375834707160497 0.0000047142485422 
0.7500000000000000 0.1875000000000000 0.6878981271005860 1.1509977519443018 1.1509929446911764 0.0000048072531253 
0.8125000000000000 0.1875000000000000 0.8097334624366992 1.1645650818533575 1.1645604853022191 0.0000045965511384 
0.8750000000000000 0.1875000000000000 0.9435509020963905 1.1782918651281740 1.1782879557886632 0.0000039093395108 
0.9375000000000000 0.1875000000000000 1.0897245096744748 1.1921797342750493 1.1921772413532716 0.0000024929217777 
1.0000000000000000 0.1875000000000000 1.2486367816271871 1.2062302494209807 1.2062302494209807 0.0000000000000000 
0.0000000000000000 0.2500000000000000 0.0625000000000000 1.0000000000000000 1.0000000000000000 0.0000000000000000 
0.0625000000000000 0.2500000000000000 0.0674519962733346 1.0157483249676653 1.0157477085866857 0.0000006163809796 
0.1250000000000000 0.2500000000000000 0.0806049537108674 1.0317446315312633 1.0317434074991028 0.0000012240321605 
0.1875000000000000 0.2500000000000000 0.1023428712906868 1.0479928221236887 1.0479910020166328 0.0000018201070560 
0.2500000000000000 0.2500000000000000 0.1330618073647324 1.0644968681517164 1.0644944589178595 0.0000024092338569 
0.3125000000000000 0.2500000000000000 0.1731701957242602 1.0812607991294005 1.0812578074490395 0.0000029916803610 
0.3750000000000000 0.2500000000000000 0.2230891691250271 1.0982887097601566 1.0982851403078258 0.0000035694523308 
0.4375000000000000 0.2500000000000000 0.2832528904365674 1.1155847554960947 1.1155806146424807 0.0000041408536140 
0.5000000000000000 0.2500000000000000 0.3541088915833832 1.1331531476498751 1.1331484530668263 0.0000046945830487 
0.5625000000000000 0.2500000000000000 0.4361184204493911 1.1509981537086800 1.1509929446911764 0.0000052090175036 
0.6250000000000000 0.2500000000000000 0.5297567959205567 1.1691240908105291 1.1691184461695043 0.0000056446410248 
0.6875000000000000 0.2500000000000000 0.6355137712443155 1.1875353185734117 1.1875293827631006 0.0000059358103111 
0.7500000000000000 0.2500000000000000 0.7538939058881129 1.2062362347618216 1.2062302494209807 0.0000059853408410 
0.8125000000000000 0.2500000000000000 0.8854169460832105 1.2252312618280490 1.2252256118773075 0.0000056499507415 
0.8750000000000000 0.2500000000000000 1.0306182142437976 1.2445248413740526 1.2445201077660952 0.0000047336079574 
0.9375000000000000 0.2500000000000000 1.1900490074554118 1.2641214148196727 1.2641184477534664 0.0000029670662063 
1.0000000000000000 0.2500000000000000 1.3642770052307251 1.2840254166877414 1.2840254166877414 0.0000000000000000 
0.0000000000000000 0.3125000000000000 0.0976562500000000 1.0000000000000000 1.0000000000000000 0.0000000000000000 
0.0625000000000000 0.3125000000000000 0.1035656408224927 1.0197240086359041 1.0197232327137742 0.0000007759221299 
0.1250000000000000 0.3125000000000000 0.1177938619873073 1.0398370054210280 1.0398354713362301 0.0000015340847979 
0.1875000000000000 0.3125000000000000 0.1408269890739401 1.0603466596560807 1.0603443883214314 0.0000022713346493 
0.2500000000000000 0.3125000000000000 0.1731701957242602 1.0812607991294005 1.0812578074490395 0.0000029916803610 
0.3125000000000000 0.3125000000000000 0.2153483802361215 1.1025874015684749 1.1025837068089421 0.0000036947595328 
0.3750000000000000 0.3125000000000000 0.2679068106739445 1.1243346078122274 1.1243302218447506 0.0000043859674768 
0.4375000000000000 0.3125000000000000 0.3314117890071953 1.1465107050109358 1.1465056484573242 0.0000050565536116 
0.5000000000000000 0.3125000000000000 0.4064513348011167 1.1691241461885460 1.1691184461695043 0.0000057000190417 
0.5625000000000000 0.3125000000000000 0.4936358889978391 1.1921835226019126 1.1921772413532716 0.0000062812486410 
0.6250000000000000 0.3125000000000000 0.5935990383401111 1.2156975907104359 1.2156908305205474 0.0000067601898885 
0.6875000000000000 0.3125000000000000 0.7069982610043759 1.2396752378133462 1.2396681836789056 0.0000070541344406 
0.7500000000000000 0.3125000000000000 0.8345156940247493 1.2641255021744258 1.2641184477534664 0.0000070544209594 
0.8125000000000000 0.3125000000000000 0.9768589231046833 1.2890575485631508 1.2890509500762830 0.0000065984868678 
0.8750000000000000 0.3125000000000000 1.1347617954286928 1.3144806748058182 1.3144752019445491 0.0000054728612691 
0.9375000000000000 0.3125000000000000 1.3089852561025264 1.3404042951535446 1.3404009022489869 0.0000033929045578 
1.0000000000000000 0.3125000000000000 1.5003182088665499 1.3668379411737963 1.3668379411737963 0.0000000000000000 
0.0000000000000000 0.3750000000000000 0.1406250000000000 1.0000000000000000 1.0000000000000000 0.0000000000000000 
0.0625000000000000 0.3750000000000000 0.1479587098214346 1.0237152583116818 1.0237143166023579 0.0000009417093239 
0.1250000000000000 0.3750000000000000 0.1637485940650989 1.0479928533032969 1.0479910020166328 0.0000018512866642 
0.1875000000000000 0.3750000000000000 0.1885857525764433 1.0728461183881826 1.0728433924348775 0.0000027259533051 
0.2500000000000000 0.3750000000000000 0.2230891691250271 1.0982887097601566 1.0982851403078258 0.0000035694523308 
0.3125000000000000 0.3750000000000000 0.2679068106739445 1.1243346078122274 1.1243302218447506 0.0000043859674768 
0.3750000000000000 0.3750000000000000 0.3237167656943933 1.1509981213911973 1.1509929446911764 0.0000051767000209 
0.4375000000000000 0.3750000000000000 0.3912284228204546 1.1782938944821260 1.1782879557886632 0.0000059386934628 
0.5000000000000000 0.3750000000000000 0.4711836911800706 1.2062369048995798 1.2062302494209807 0.0000066554785991 
0.5625000000000000 0.3750000000000000 0.5643582637803813 1.2348424724130318 1.2348351754510909 0.0000072969619409 
0.6250000000000000 0.3750000000000000 0.6715629253690291 1.2641262564597477 1.2641184477534664 0.0000078087062814 
0.6875000000000000 0.3750000000000000 0.7936449062378148 1.2941042553157018 1.2940961528463732 0.0000081024693286 
0.7500000000000000 0.3750000000000000 0.9314892834812337 1.3247928130832523 1.3247847587288657 0.0000080543543866 
0.8125000000000000 0.3750000000000000 1.0860204312699406 1.3562086121379180 1.3562011239273404 0.0000074882105776 
0.8750000000000000 0.3750000000000000 1.2582035217481931 1.3883686769262198 1.3883625067566268 0.0000061701695930 
0.9375000000000000 0.3750000000000000 1.4490460782147727 1.4212903745440870 1.4212865748006966 0.0000037997433904 
1.0000000000000000 0.3750000000000000 1.6595995822988858 1.4549914146182013 1.4549914146182013 0.0000000000000000 
0.0000000000000000 0.4375000000000000 0.1914062500000000 1.0000000000000000 1.0000000000000000 0.0000000000000000 
0.0625000000000000 0.4375000000000000 0.2007267619436761 1.0277221351079842 1.0277210211516217 0.0000011139563625 
0.1250000000000000 0.4375000000000000 0.2186685795226461 1.0562126725616521 1.0562104973169320 0.0000021752447201 
0.1875000000000000 0.4375000000000000 0.2459312671465232 1.0854929112552361 1.0854897308536195 0.0000031804016165 
0.2500000000000000 0.4375000000000000 0.2832528904365674 1.1155847554960945 1.1155806146424807 0.0000041408536138 
0.3125000000000000 0.4375000000000000 0.3314117890071953 1.1465107050109355 1.1465056484573242 0.0000050565536114 
0.3750000000000000 0.4375000000000000 0.3912284228204546 1.1782938944821260 1.1782879557886632 0.0000059386934628 
0.4375000000000000 0.4375000000000000 0.4635672949652758 1.2109580781609899 1.2109513011337818 0.0000067770272081 
0.5000000000000000 0.4375000000000000 0.5493389538186280 1.2445276695137597 1.2445201077660952 0.0000075617476645 
0.5625000000000000 0.4375000000000000 0.6495020776547762 1.2790277301588742 1.2790194759970976 0.0000082541617765 
0.6250000000000000 0.4375000000000000 0.7650656448817884 1.3144839999226574 1.3144752019445491 0.0000087979781083 
0.6875000000000000 0.4375000000000000 0.8970911932014030 1.3509228898298056 1.3509137968209362 0.0000090930088694 
0.7500000000000000 0.4375000000000000 1.0466951711094881 1.3883715140751418 1.3883625067566268 0.0000090073185151 
0.8125000000000000 0.4375000000000000 1.2150513852797460 1.4268576759237088 1.4268493331725458 0.0000083427511630 
0.8750000000000000 0.4375000000000000 1.4033935475031711 1.4664099046594004 1.4664030537175992 0.0000068509418012 
0.9375000000000000 0.4375000000000000 1.6130179249902461 1.5070574469907005 1.5070532437865074 0.0000042032041931 
1.0000000000000000 0.4375000000000000 1.8452860979820727 1.5488302986341331 1.5488302986341331 0.0000000000000000 
0.0000000000000000 0.5000000000000000 0.2500000000000000 1.0000000000000000 1.0000000000000000 0.0000000000000000 
0.0625000000000000 0.5000000000000000 0.2619660995603191 1.0317447007953076 1.0317434074991028 0.0000012932962048 
0.1250000000000000 0.5000000000000000 0.2827563406500564 1.0644969610035142 1.0644944589178595 0.0000025020856547 
0.1875000000000000 0.5000000000000000 0.3131828720409034 1.0982887730019184 1.0982851403078258 0.0000036326940926 
0.2500000000000000 0.5000000000000000 0.3541088915833832 1.1331531476498751 1.1331484530668263 0.0000046945830487 
0.3125000000000000 0.5000000000000000 0.4064513348011167 1.1691241461885460 1.1691184461695043 0.0000057000190417 
0.3750000000000000 0.5000000000000000 0.4711836911800706 1.2062369048995794 1.2062302494209807 0.0000066554785987 
0.4375000000000000 0.5000000000000000 0.5493389538186280 1.2445276695137597 1.2445201077660952 0.0000075617476645 
0.5000000000000000 0.5000000000000000 0.6420127083438707 1.2840338210833553 1.2840254166877414 0.0000084043956139 
0.5625000000000000 0.5000000000000000 0.7503663672487716 1.3247939030034417 1.3247847587288657 0.0000091442745760 
0.6250000000000000 0.5000000000000000 0.8756305560644633 1.3668476611631832 1.3668379411737963 0.0000097199893869 
0.6875000000000000 0.5000000000000000 1.0191086580517832 1.4102360623849939 1.4102260349257107 0.0000100274592831 
0.7500000000000000 0.5000000000000000 1.1821805243772885 1.4550013296223254 1.4549914146182013 0.0000099150041242 
0.8125000000000000 0.5000000000000000 1.3663063570313618 1.5011869742863995 1.5011778000001228 0.0000091742862767 
0.8750000000000000 0.5000000000000000 1.5730307720502914 1.5488378233567393 1.5488302986341331 0.0000075247226061 
0.9375000000000000 0.5000000000000000 1.8039870509208320 1.5980000637361422 1.5979954499506333 0.0000046137855090 
1.0000000000000000 0.5000000000000000 2.0609015883751605 1.6487212707001282 1.6487212707001282 0.0000000000000000 
0.0000000000000000 0.5625000000000000 0.3164062500000000 1.0000000000000000 1.0000000000000000 0.0000000000000000 
0.0625000000000000 0.5625000000000000 0.3317737735772389 1.0357830104364780 1.0357815370216239 0.0000014734148541 
0.1250000000000000 0.5625000000000000 0.3562175326443929 1.0728462162441226 1.0728433924348775 0.0000028238092451 
0.1875000000000000 0.5625000000000000 0.3906672813280162 1.1112354385312884 1.1112313779996905 0.0000040605315978 
0.2500000000000000 0.5625000000000000 0.4361184204493911 1.1509981537086802 1.1509929446911764 0.0000052090175038 
0.3125000000000000 0.5625000000000000 0.4936358889978391 1.1921835226019126 1.1921772413532716 0.0000062812486410 
0.3750000000000000 0.5625000000000000 0.5643582637803813 1.2348424724130318 1.2348351754510909 0.0000072969619409 
0.4375000000000000 0.5625000000000000 0.6495020776547762 1.2790277301588742 1.2790194759970976 0.0000082541617765 
0.5000000000000000 0.5625000000000000 0.7503663672487716 1.3247939030034417 1.3247847587288657 0.0000091442745760 
0.5625000000000000 0.5625000000000000 0.8683374615870268 1.3721975208195594 1.3721875936190053 0.0000099272005540 
0.6250000000000000 0.5625000000000000 1.0048940235895552 1.4212971156673426 1.4212865748006966 0.0000105408666460 
0.6875000000000000 0.5625000000000000 1.1616123569728261 1.4721532613137067 1.4721423929952646 0.0000108683184421 
0.7500000000000000 0.5625000000000000 1.3401719916779238 1.5248286644388200 1.5248179105313266 0.0000107539074934 
0.8125000000000000 0.5625000000000000 1.5423615615705455 1.5793882006340465 1.5793782390482385 0.0000099615858080 
0.8750000000000000 0.5625000000000000 1.7700849888063654 1.6358990064530956 1.6358908199798901 0.0000081864732056 
0.9375000000000000 0.5625000000000000 2.0253679899336348 1.6944305367699557 1.6944255079183350 0.0000050288516207 
1.0000000000000000 0.5625000000000000 2.3103649195141429 1.7550546569602985 1.7550546569602985 0.0000000000000000 
0.0000000000000000 0.6250000000000000 0.3906250000000000 1.0000000000000000 1.0000000000000000 0.0000000000000000 
0.0625000000000000 0.6250000000000000 0.4102475883006220 1.0398371192639417 1.0398354713362301 0.0000016479277116 
0.1250000000000000 0.6250000000000000 0.4392609842761723 1.0812609258753816 1.0812578074490395 0.0000031184263420 
0.1875000000000000 0.6250000000000000 0.4787187272698352 1.1243346618051275 1.1243302218447506 0.0000044399603769 
0.2500000000000000 0.6250000000000000 0.5297567959205567 1.1691240908105289 1.1691184461695043 0.0000056446410246 
0.3125000000000000 0.6250000000000000 0.5935990383401111 1.2156975907104359 1.2156908305205474 0.0000067601898885 
0.3750000000000000 0.6250000000000000 0.6715629253690291 1.2641262564597475 1.2641184477534664 0.0000078087062811 
0.4375000000000000 0.6250000000000000 0.7650656448817884 1.3144839999226574 1.3144752019445491 0.0000087979781083 
0.5000000000000000 0.6250000000000000 0.8756305560644633 1.3668476611631832 1.3668379411737963 0.0000097199893869 
0.5625000000000000 0.6250000000000000 1.0048940235895552 1.4212971156673426 1.4212865748006966 0.0000105408666460 
0.6250000000000000 0.6250000000000000 1.1546126526654206 1.4779153870258637 1.4779041954117385 0.0000111916141252 
0.6875000000000000 0.6250000000000000 1.3266709470441103 1.5367887631938879 1.5367772056257567 0.0000115575681312 
0.7500000000000000 0.6250000000000000 1.5230894132341972 1.5980069152130527 1.5979954499506333 0.0000114652624195 
0.8125000000000000 0.6250000000000000 1.7460331353871121 1.6616630144165045 1.6616523518925677 0.0000106625239369 
0.8750000000000000 0.6250000000000000 1.9978208466095324 1.7278538601825493 1.7278450565271632 0.0000088036553860 
0.9375000000000000 0.6250000000000000 2.2809345238035812 1.7966800159678071 1.7966745787498977 0.0000054372179095 
1.0000000000000000 0.6250000000000000 2.5980295345541844 1.8682459574322223 1.8682459574322223 0.0000000000000000 
0.0000000000000000 0.6875000000000000 0.4726562500000000 1.0000000000000000 1.0000000000000000 0.0000000000000000 
0.0625000000000000 0.6875000000000000 0.4974861063310065 1.0439070690554062 1.0439052723011284 0.0000017967542778 
0.1250000000000000 0.6875000000000000 0.5320987390322721 1.0897415699470752 1.0897382175380932 0.0000033524089820 
0.1875000000000000 0.6875000000000000 0.5776791062229940 1.1375881849645919 1.1375834707160497 0.0000047142485422 
0.2500000000000000 0.6875000000000000 0.6355137712443155 1.1875353185734114 1.1875293827631006 0.0000059358103108 
0.3125000000000000 0.6875000000000000 0.7069982610043759 1.2396752378133460 1.2396681836789056 0.0000070541344404 
0.3750000000000000 0.6875000000000000 0.7936449062378148 1.2941042553157016 1.2940961528463732 0.0000081024693284 
0.4375000000000000 0.6875000000000000 0.8970911932014030 1.3509228898298056 1.3509137968209362 0.0000090930088694 
0.5000000000000000 0.6875000000000000 1.0191086580517832 1.4102360623849937 1.4102260349257107 0.0000100274592829 
0.5625000000000000 0.6875000000000000 1.1616123569728261 1.4721532613137067 1.4721423929952646 0.0000108683184421 
0.6250000000000000 0.6875000000000000 1.3266709470441103 1.5367887631938879 1.5367772056257567 0.0000115575681312 
0.6875000000000000 0.6875000000000000 1.5165174148741851 1.6042618005678091 1.6042498273049230 0.0000119732628860 
0.7500000000000000 0.6875000000000000 1.7335604921684482 1.6746967916417321 1.6746848528117839 0.0000119388299482 
0.8125000000000000 0.6875000000000000 1.9803967996679201 1.7482235255455629 1.7482123472930606 0.0000111782525023 
0.8750000000000000 0.6875000000000000 2.2598237632884643 1.8249773936559079 1.8249680864411575 0.0000093072147505 
0.9375000000000000 0.6875000000000000 2.5748533488170318 1.9050996102418090 1.9050938072172259 0.0000058030245831 
1.0000000000000000 0.6875000000000000 2.9287266641895471 1.9887374695822919 1.9887374695822919 0.0000000000000000 
0.0000000000000000 0.7500000000000000 0.5625000000000000 1.0000000000000000 1.0000000000000000 0.0000000000000000 
0.0625000000000000 0.7500000000000000 0.5935886534859834 1.0479928952490134 1.0479910020166328 0.0000018932323806 
0.1250000000000000 0.7500000000000000 0.6349460967404618 1.0982886077891818 1.0982851403078258 0.0000034674813560 
0.1875000000000000 0.7500000000000000 0.6878981271005860 1.1509977519443018 1.1509929446911764 0.0000048072531253 
0.2500000000000000 0.7500000000000000 0.7538939058881129 1.2062362347618214 1.2062302494209807 0.0000059853408407 
0.3125000000000000 0.7500000000000000 0.8345156940247493 1.2641255021744258 1.2641184477534664 0.0000070544209594 
0.3750000000000000 0.7500000000000000 0.9314892834812337 1.3247928130832520 1.3247847587288657 0.0000080543543863 
0.4375000000000000 0.7500000000000000 1.0466951711094881 1.3883715140751416 1.3883625067566268 0.0000090073185148 
0.5000000000000000 0.7500000000000000 1.1821805243772885 1.4550013296223254 1.4549914146182013 0.0000099150041242 
0.5625000000000000 0.7500000000000000 1.3401719916779238 1.5248286644388203 1.5248179105313266 0.0000107539074936 
0.6250000000000000 0.7500000000000000 1.5230894132341972 1.5980069152130527 1.5979954499506333 0.0000114652624195 
0.6875000000000000 0.7500000000000000 1.7335604921684482 1.6746967916417321 1.6746848528117839 0.0000119388299482 
0.7500000000000000 0.7500000000000000 1.9744364890803359 1.7550666509999393 1.7550546569602985 0.0000119940396408 
0.8125000000000000 0.7500000000000000 2.2488090074749119 1.8392928335838366 1.8392814885417810 0.0000113450420556 
0.8750000000000000 0.7500000000000000 2.5600279416287703 1.9275600182729380 1.9275504501675447 0.0000095681053933 
0.9375000000000000 0.7500000000000000 2.9117206629863635 2.0200615856176398 2.0200555277086965 0.0000060579089434 
1.0000000000000000 0.7500000000000000 3.3078125259573046 2.1170000166126748 2.1170000166126748 0.0000000000000000 
0.0000000000000000 0.8125000000000000 0.6601562500000000 1.0000000000000000 1.0000000000000000 0.0000000000000000 
0.0625000000000000 0.8125000000000000 0.6986553237517136 1.0520946081280287 1.0520927228261099 0.0000018853019188 
0.1250000000000000 0.8125000000000000 0.7480216556808310 1.1069024722051213 1.1068990974236574 0.0000033747814638 
0.1875000000000000 0.8125000000000000 0.8097334624366992 1.1645650818533575 1.1645604853022191 0.0000045965511384 
0.2500000000000000 0.8125000000000000 0.8854169460832105 1.2252312618280490 1.2252256118773075 0.0000056499507415 
0.3125000000000000 0.8125000000000000 0.9768589231046833 1.2890575485631506 1.2890509500762830 0.0000065984868676 
0.3750000000000000 0.8125000000000000 1.0860204312699406 1.3562086121379180 1.3562011239273404 0.0000074882105776 
0.4375000000000000 0.8125000000000000 1.2150513852797460 1.4268576759237088 1.4268493331725458 0.0000083427511630 
0.5000000000000000 0.8125000000000000 1.3663063570313618 1.5011869742863995 1.5011778000001228 0.0000091742862767 
0.5625000000000000 0.8125000000000000 1.5423615615705455 1.5793882006340465 1.5793782390482385 0.0000099615858080 
0.6250000000000000 0.8125000000000000 1.7460331353871121 1.6616630144165048 1.6616523518925677 0.0000106625239371 
0.6875000000000000 0.8125000000000000 1.9803967996679201 1.7482235255455629 1.7482123472930606 0.0000111782525023 
0.7500000000000000 0.8125000000000000 2.2488090074749119 1.8392928335838366 1.8392814885417810 0.0000113450420556 
0.8125000000000000 0.8125000000000000 2.5549296805912922 1.9351055537412267 1.9350946693235824 0.0000108844176443 
0.8750000000000000 0.8125000000000000 2.9027466490033298 2.0359083733792533 2.0358990195749382 0.0000093538043151 
0.9375000000000000 0.8125000000000000 3.2966019136875788 2.1419606052812425 2.1419545429036044 0.0000060623776381 
1.0000000000000000 0.8125000000000000 3.7412198615844283 2.2535347872132085 2.2535347872132085 0.0000000000000000 
0.0000000000000000 0.8750000000000000 0.7656250000000000 1.0000000000000000 1.0000000000000000 0.0000000000000000 
0.0625000000000000 0.8750000000000000 0.8127869842634203 1.0562121900786980 1.0562104973169320 0.0000016927617661 
0.1250000000000000 0.8750000000000000 0.8715473551894380 1.1155835472499767 1.1155806146424807 0.0000029326074960 
0.1875000000000000 0.8750000000000000 0.9435509020963905 1.1782918651281740 1.1782879557886632 0.0000039093395108 
0.2500000000000000 0.8750000000000000 1.0306182142437976 1.2445248413740528 1.2445201077660952 0.0000047336079576 
0.3125000000000000 0.8750000000000000 1.1347617954286928 1.3144806748058184 1.3144752019445491 0.0000054728612693 
0.3750000000000000 0.8750000000000000 1.2582035217481931 1.3883686769262196 1.3883625067566268 0.0000061701695928 
0.4375000000000000 0.8750000000000000 1.4033935475031711 1.4664099046594006 1.4664030537175992 0.0000068509418014 
0.5000000000000000 0.8750000000000000 1.5730307720502914 1.5488378233567393 1.5488302986341331 0.0000075247226061 
0.5625000000000000 0.8750000000000000 1.7700849888063654 1.6358990064530958 1.6358908199798901 0.0000081864732058 
0.6250000000000000 0.8750000000000000 1.9978208466095324 1.7278538601825491 1.7278450565271632 0.0000088036553858 
0.6875000000000000 0.8750000000000000 2.2598237632884643 1.8249773936559079 1.8249680864411575 0.0000093072147505 
0.7500000000000000 0.8750000000000000 2.5600279416287703 1.9275600182729380 1.9275504501675447 0.0000095681053933 
0.8125000000000000 0.8750000000000000 2.9027466490033298 2.0359083733792529 2.0358990195749382 0.0000093538043147 
0.8750000000000000 0.8750000000000000 3.2927049338019598 2.1503461672220290 2.1503379159523002 0.0000082512697288 
0.9375000000000000 0.8750000000000000 3.7350749645106625 2.2712150290250630 2.2712094796074336 0.0000055494176294 
1.0000000000000000 0.8750000000000000 4.2355141909106573 2.3988752939670981 2.3988752939670981 0.0000000000000000 
0.0000000000000000 0.9375000000000000 0.8789062500000000 1.0000000000000000 1.0000000000000000 0.0000000000000000 
0.0625000000000000 0.9375000000000000 0.9360852803150137 1.0603455529518080 1.0603443883214314 0.0000011646303766 
0.1250000000000000 0.9375000000000000 1.0057485187595621 1.1243321458554350 1.1243302218447506 0.0000019240106843 
0.1875000000000000 0.9375000000000000 1.0897245096744748 1.1921797342750493 1.1921772413532716 0.0000024929217777 
0.2500000000000000 0.9375000000000000 1.1900490074554118 1.2641214148196727 1.2641184477534664 0.0000029670662063 