variables ="x","y","f","u","ue", "e" 
zone f=point i = 64,j = 64
0.0000000000000000 0.0000000000000000 0.0000000000000000 1.0000000000000000 1.0000000000000000 0.0000000000000000 
0.0000000000000000 0.0156250000000000 0.0002441406250000 1.0000000000000000 1.0000000000000000 0.0000000000000000 
0.0000000000000000 0.0312500000000000 0.0009765625000000 1.0000000000000000 1.0000000000000000 0.0000000000000000 
0.0000000000000000 0.0468750000000000 0.0021972656250000 1.0000000000000000 1.0000000000000000 0.0000000000000000 
0.0000000000000000 0.0625000000000000 0.0039062500000000 1.0000000000000000 1.0000000000000000 0.0000000000000000 
0.0000000000000000 0.0781250000000000 0.0061035156250000 1.0000000000000000 1.0000000000000000 0.0000000000000000 
0.0000000000000000 0.0937500000000000 0.0087890625000000 1.0000000000000000 1.0000000000000000 0.0000000000000000 
0.0000000000000000 0.1093750000000000 0.0119628906250000 1.0000000000000000 1.0000000000000000 0.0000000000000000 
0.0000000000000000 0.1250000000000000 0.0156250000000000 1.0000000000000000 1.0000000000000000 0.0000000000000000 
0.0000000000000000 0.1406250000000000 0.0197753906250000 1.0000000000000000 1.0000000000000000 0.0000000000000000 
0.0000000000000000 0.1562500000000000 0.0244140625000000 1.0000000000000000 1.0000000000000000 0.0000000000000000 
0.0000000000000000 0.1718750000000000 0.0295410156250000 1.0000000000000000 1.0000000000000000 0.0000000000000000 
0.0000000000000000 0.1875000000000000 0.0351562500000000 1.0000000000000000 1.0000000000000000 0.0000000000000000 
0.0000000000000000 0.2031250000000000 0.0412597656250000 1.0000000000000000 1.0000000000000000 0.0000000000000000 
0.0000000000000000 0.2187500000000000 0.0478515625000000 1.0000000000000000 1.0000000000000000 0.0000000000000000 
0.0000000000000000 0.2343750000000000 0.0549316406250000 1.0000000000000000 1.0000000000000000 0.0000000000000000 
0.0000000000000000 0.2500000000000000 0.0625000000000000 1.0000000000000000 1.0000000000000000 0.0000000000000000 
0.0000000000000000 0.2656250000000000 0.0705566406250000 1.0000000000000000 1.0000000000000000 0.0000000000000000 
0.0000000000000000 0.2812500000000000 0.0791015625000000 1.0000000000000000 1.0000000000000000 0.0000000000000000 
0.0000000000000000 0.2968750000000000 0.0881347656250000 1.0000000000000000 1.0000000000000000 0.0000000000000000 
0.0000000000000000 0.3125000000000000 0.0976562500000000 1.0000000000000000 1.0000000000000000 0.0000000000000000 
0.0000000000000000 0.3281250000000000 0.1076660156250000 1.0000000000000000 1.0000000000000000 0.0000000000000000 
0.0000000000000000 0.3437500000000000 0.1181640625000000 1.0000000000000000 1.0000000000000000 0.0000000000000000 
0.0000000000000000 0.3593750000000000 0.1291503906250000 1.0000000000000000 1.0000000000000000 0.0000000000000000 
0.0000000000000000 0.3750000000000000 0.1406250000000000 1.0000000000000000 1.0000000000000000 0.0000000000000000 
0.0000000000000000 0.3906250000000000 0.1525878906250000 1.0000000000000000 1.0000000000000000 0.0000000000000000 
0.0000000000000000 0.4062500000000000 0.1650390625000000 1.0000000000000000 1.0000000000000000 0.0000000000000000 
0.0000000000000000 0.4218750000000000 0.1779785156250000 1.0000000000000000 1.0000000000000000 0.0000000000000000 
0.0000000000000000 0.4375000000000000 0.1914062500000000 1.0000000000000000 1.0000000000000000 0.0000000000000000 
0.0000000000000000 0.4531250000000000 0.2053222656250000 1.0000000000000000 1.0000000000000000 0.0000000000000000 
0.0000000000000000 0.4687500000000000 0.2197265625000000 1.0000000000000000 1.0000000000000000 0.0000000000000000 
0.0000000000000000 0.4843750000000000 0.2346191406250000 1.0000000000000000 1.0000000000000000 0.0000000000000000 
0.0000000000000000 0.5000000000000000 0.2500000000000000 1.0000000000000000 1.0000000000000000 0.0000000000000000 
0.0000000000000000 0.5156250000000000 0.2658691406250000 1.0000000000000000 1.0000000000000000 0.0000000000000000 
0.0000000000000000 0.5312500000000000 0.2822265625000000 1.0000000000000000 1.0000000000000000 0.0000000000000000 
0.0000000000000000 0.5468750000000000 0.2990722656250000 1.0000000000000000 1.0000000000000000 0.0000000000000000 
0.0000000000000000 0.5625000000000000 0.3164062500000000 1.0000000000000000 1.0000000000000000 0.0000000000000000 
0.0000000000000000 0.5781250000000000 0.3342285156250000 1.0000000000000000 1.0000000000000000 0.0000000000000000 
0.0000000000000000 0.5937500000000000 0.3525390625000000 1.0000000000000000 1.0000000000000000 0.0000000000000000 
0.0000000000000000 0.6093750000000000 0.3713378906250000 1.0000000000000000 1.0000000000000000 0.0000000000000000 
0.0000000000000000 0.6250000000000000 0.3906250000000000 1.0000000000000000 1.0000000000000000 0.0000000000000000 
0.0000000000000000 0.6406250000000000 0.4104003906250000 1.0000000000000000 1.0000000000000000 0.0000000000000000 
0.0000000000000000 0.6562500000000000 0.4306640625000000 1.0000000000000000 1.0000000000000000 0.0000000000000000 
0.0000000000000000 0.6718750000000000 0.4514160156250000 1.0000000000000000 1.0000000000000000 0.0000000000000000 
0.0000000000000000 0.6875000000000000 0.4726562500000000 1.0000000000000000 1.0000000000000000 0.0000000000000000 
0.0000000000000000 0.7031250000000000 0.4943847656250000 1.0000000000000000 1.0000000000000000 0.0000000000000000 
0.0000000000000000 0.7187500000000000 0.5166015625000000 1.0000000000000000 1.0000000000000000 0.0000000000000000 
0.0000000000000000 0.7343750000000000 0.5393066406250000 1.0000000000000000 1.0000000000000000 0.0000000000000000 
0.0000000000000000 0.7500000000000000 0.5625000000000000 1.0000000000000000 1.0000000000000000 0.0000000000000000 
0.0000000000000000 0.7656250000000000 0.5861816406250000 1.0000000000000000 1.0000000000000000 0.0000000000000000 
0.0000000000000000 0.7812500000000000 0.6103515625000000 1.0000000000000000 1.0000000000000000 0.0000000000000000 
0.0000000000000000 0.7968750000000000 0.6350097656250000 1.0000000000000000 1.0000000000000000 0.0000000000000000 
0.0000000000000000 0.8125000000000000 0.6601562500000000 1.0000000000000000 1.0000000000000000 0.0000000000000000 
0.0000000000000000 0.8281250000000000 0.6857910156250000 1.0000000000000000 1.0000000000000000 0.0000000000000000 
0.0000000000000000 0.8437500000000000 0.7119140625000000 1.0000000000000000 1.0000000000000000 0.0000000000000000 
0.0000000000000000 0.8593750000000000 0.7385253906250000 1.0000000000000000 1.0000000000000000 0.0000000000000000 
0.0000000000000000 0.8750000000000000 0.7656250000000000 1.0000000000000000 1.0000000000000000 0.0000000000000000 
0.0000000000000000 0.8906250000000000 0.7932128906250000 1.0000000000000000 1.0000000000000000 0.0000000000000000 
0.0000000000000000 0.9062500000000000 0.8212890625000000 1.0000000000000000 1.0000000000000000 0.0000000000000000 
0.0000000000000000 0.9218750000000000 0.8498535156250000 1.0000000000000000 1.0000000000000000 0.0000000000000000 
0.0000000000000000 0.9375000000000000 0.8789062500000000 1.0000000000000000 1.0000000000000000 0.0000000000000000 
0.0000000000000000 0.9531250000000000 0.9084472656250000 1.0000000000000000 1.0000000000000000 0.0000000000000000 
0.0000000000000000 0.9687500000000000 0.9384765625000000 1.0000000000000000 1.0000000000000000 0.0000000000000000 
0.0000000000000000 0.9843750000000000 0.9689941406250000 1.0000000000000000 1.0000000000000000 0.0000000000000000 
0.0000000000000000 1.0000000000000000 1.0000000000000000 1.0000000000000000 1.0000000000000000 0.0000000000000000 
0.0156250000000000 0.0000000000000000 0.0002441406250000 1.0000000000000000 1.0000000000000000 0.0000000000000000 
0.0156250000000000 0.0156250000000000 0.0004884004738427 1.0002441710351915 1.0002441704297478 0.0000000006054437 
0.0156250000000000 0.0312500000000000 0.0012212993169906 1.0004884016896820 1.0004884004786945 0.0000000012109875 
0.0156250000000000 0.0468750000000000 0.0024431950443393 1.0007326919778099 1.0007326901613971 0.0000000018164128 
0.0156250000000000 0.0625000000000000 0.0041544457205496 1.0009770419145212 1.0009770394924165 0.0000000024221047 
0.0156250000000000 0.0781250000000000 0.0063554095851182 1.0012214515141835 1.0012214484863171 0.0000000030278664 
0.0156250000000000 0.0937500000000000 0.0090464450524496 1.0014659207917365 1.0014659171576668 0.0000000036340697 
0.0156250000000000 0.1093750000000000 0.0122279107119267 1.0017104497619462 1.0017104455210371 0.0000000042409092 
0.0156250000000000 0.1250000000000000 0.0159001653279822 1.0019550384396130 1.0019550335910028 0.0000000048486102 
0.0156250000000000 0.1406250000000000 0.0200635678401699 1.0021996868396859 1.0021996813821428 0.0000000054575431 
0.0156250000000000 0.1562500000000000 0.0247184773632356 1.0024443949769601 1.0024443889090391 0.0000000060679211 
0.0156250000000000 0.1718750000000000 0.0298652531871889 1.0026891628666312 1.0026891561862772 0.0000000066803540 
0.0156250000000000 0.1875000000000000 0.0355042547773742 1.0029339905235879 1.0029339832284467 0.0000000072951412 
0.0156250000000000 0.2031250000000000 0.0416358417745420 1.0031788779629360 1.0031788700501403 0.0000000079127958 
0.0156250000000000 0.2187500000000000 0.0482603739949202 1.0034238251999685 1.0034238166659546 0.0000000085340139 
0.0156250000000000 0.2343750000000000 0.0553782114302858 1.0036688322497087 1.0036688230904891 0.0000000091592196 
0.0156250000000000 0.2500000000000000 0.0629897142480360 1.0039138991275067 1.0039138893383475 0.0000000097891593 
0.0156250000000000 0.2656250000000000 0.0710952427912597 1.0041590258486490 1.0041590154241371 0.0000000104245119 
0.0156250000000000 0.2812500000000000 0.0796951575788092 1.0044042124285166 1.0044042013624686 0.0000000110660481 
0.0156250000000000 0.2968750000000000 0.0887898193053711 1.0046494588821786 1.0046494471679557 0.0000000117142229 
0.0156250000000000 0.3125000000000000 0.0983795888415385 1.0048947652249114 1.0048947528552166 0.0000000123696948 
0.0156250000000000 0.3281250000000000 0.1084648272338822 1.0051401314719703 1.0051401184388726 0.0000000130330977 
0.0156250000000000 0.3437500000000000 0.1190458957050222 1.0053855576384390 1.0053855439335486 0.0000000137048903 
0.0156250000000000 0.3593750000000000 0.1301231556536994 1.0056310437397393 1.0056310293538733 0.0000000143858661 
0.0156250000000000 0.3750000000000000 0.1416969686548472 1.0058765897907755 1.0058765747144782 0.0000000150762973 
0.0156250000000000 0.3906250000000000 0.1537676964596630 1.0061221958064610 1.0061221800299998 0.0000000157764612 
0.0156250000000000 0.4062500000000000 0.1663357009956803 1.0063678618019263 1.0063678453150764 0.0000000164868499 
0.0156250000000000 0.4218750000000000 0.1794013443668400 1.0066135877915698 1.0066135705843515 0.0000000172072183 
0.0156250000000000 0.4375000000000000 0.1929649888535619 1.0068593737901381 1.0068593558524710 0.0000000179376671 
0.0156250000000000 0.4531250000000000 0.2070269969128173 1.0071052198122610 1.0071052011340851 0.0000000186781759 
0.0156250000000000 0.4687500000000000 0.2215877311781998 1.0073511258719094 1.0073511064438474 0.0000000194280620 
0.0156250000000000 0.4843750000000000 0.2366475544599978 1.0075970919835142 1.0075970717964147 0.0000000201870995 
0.0156250000000000 0.5000000000000000 0.2522068297452659 1.0078431181608549 1.0078430972064480 0.0000000209544069 
0.0156250000000000 0.5156250000000000 0.2682659201978971 1.0080892044174115 1.0080891826886114 0.0000000217288001 
0.0156250000000000 0.5312500000000000 0.2848251891586941 1.0083353507664967 1.0083353282575724 0.0000000225089243 
0.0156250000000000 0.5468750000000000 0.3018850001454423 1.0085815572210091 1.0085815339280031 0.0000000232930060 
0.0156250000000000 0.5625000000000000 0.3194457168529804 1.0088278237933819 1.0088277997145780 0.0000000240788038 
0.0156250000000000 0.5781250000000000 0.3375077031532732 1.0090741504959861 1.0090741256319760 0.0000000248640102 
0.0156250000000000 0.5937500000000000 0.3560713230954834 1.0093205373405600 1.0093205116948789 0.0000000256456811 
0.0156250000000000 0.6093750000000000 0.3751369409060437 1.0095669843380148 1.0095669579179729 0.0000000264200419 
0.0156250000000000 0.6250000000000000 0.3947049209887283 1.0098134914991974 1.0098134643159469 0.0000000271832505 
0.0156250000000000 0.6406250000000000 0.4147756279247259 1.0100600588338127 1.0100600309034942 0.0000000279303185 
0.0156250000000000 0.6562500000000000 0.4353494264727109 1.0103066863511632 1.0103066576953110 0.0000000286558521 
0.0156250000000000 0.6718750000000000 0.4564266815689161 1.0105533740598267 1.0105533447060975 0.0000000293537292 
0.0156250000000000 0.6875000000000000 0.4780077583272046 1.0108001219671445 1.0108000919505575 0.0000000300165870 
0.0156250000000000 0.7031250000000000 0.5000930220391419 1.0110469300795397 1.0110468994433983 0.0000000306361414 
0.0156250000000000 0.7187500000000000 0.5226828381740680 1.0112937984023103 1.0112937671993305 0.0000000312029798 
0.0156250000000000 0.7343750000000000 0.5457775723791706 1.0115407269394467 1.0115406952330690 0.0000000317063777 
0.0156250000000000 0.7500000000000000 0.5693775904795555 1.0117877156933688 1.0117876835593316 0.0000000321340372 
0.0156250000000000 0.7656250000000000 0.5934832584783206 1.0120347646648284 1.0120347321928398 0.0000000324719887 
0.0156250000000000 0.7812500000000000 0.6180949425566273 1.0122818738520702 1.0122818411483190 0.0000000327037513 
0.0156250000000000 0.7968750000000000 0.6432130090737735 1.0125290432512082 1.0125290104404983 0.0000000328107099 
0.0156250000000000 0.8125000000000000 0.6688378245672648 1.0127762728556720 1.0127762400841096 0.0000000327715624 
0.0156250000000000 0.8281250000000000 0.6949697557528880 1.0130235626547566 1.0130235300938895 0.0000000325608671 
0.0156250000000000 0.8437500000000000 0.7216091695247830 1.0132709126332455 1.0132708804845771 0.0000000321486684 
0.0156250000000000 0.8593750000000000 0.7487564329555155 1.0135183227710829 1.0135182912709160 0.0000000315001669 
0.0156250000000000 0.8750000000000000 0.7764119132961491 1.0137657930399000 1.0137657624676528 0.0000000305722472 
0.0156250000000000 0.8906250000000000 0.8045759779763183 1.0140133234021054 1.0140132940895383 0.0000000293125670 
0.0156250000000000 0.9062500000000000 0.8332489946043000 1.0142609138063374 1.0142608861513263 0.0000000276550112 
0.0156250000000000 0.9218750000000000 0.8624313309670872 1.0145085641810019 1.0145085386677741 0.0000000255132278 
0.0156250000000000 0.9375000000000000 0.8921233550304615 1.0147562744233023 1.0147562516536435 0.0000000227696588 
0.0156250000000000 0.9531250000000000 0.9223254349390645 1.0150040443772894 1.0150040251236991 0.0000000192535903 
0.0156250000000000 0.9687500000000000 0.9530379390164715 1.0152518737879768 1.0152518590927093 0.0000000146952674 
0.0156250000000000 0.9843750000000000 0.9842612357652643 0.0000000000000000 1.0154997535754464 -1.0154997535754464 
0.0156250000000000 1.0000000000000000 1.0159956938671024 1.0157477085866857 1.0157477085866857 0.0000000000000000 
0.0312500000000000 0.0000000000000000 0.0009765625000000 1.0000000000000000 1.0000000000000000 0.0000000000000000 
0.0312500000000000 0.0156250000000000 0.0012212993169906 1.0004884016896820 1.0004884004786945 0.0000000012109875 
0.0312500000000000 0.0312500000000000 0.0019550332802586 1.0009770419143047 1.0009770394924165 0.0000000024218882 
0.0312500000000000 0.0468750000000000 0.0031784806941039 1.0014659207904471 1.0014659171576668 0.0000000036327803 
0.0312500000000000 0.0625000000000000 0.0048923585624561 1.0019550384348199 1.0019550335910028 0.0000000048438171 
0.0312500000000000 0.0781250000000000 0.0070973845894439 1.0024443949642421 1.0024443889090391 0.0000000060552030 
0.0312500000000000 0.0937500000000000 0.0097942771799653 1.0029339904956893 1.0029339832284467 0.0000000072672426 
0.0312500000000000 0.1093750000000000 0.0129837554402577 1.0034238251463254 1.0034238166659546 0.0000000084803708 
0.0312500000000000 0.1250000000000000 0.0166665391784687 1.0039138990332037 1.0039138893383475 0.0000000096948563 
0.0312500000000000 0.1406250000000000 0.0208433489052270 1.0044042122740666 1.0044042013624686 0.0000000109115981 
0.0312500000000000 0.1562500000000000 0.0255149058342145 1.0048947649861442 1.0048947528552166 0.0000000121309276 
0.0312500000000000 0.1718750000000000 0.0306819318827377 1.0053855572873924 1.0053855439335486 0.0000000133538438 
0.0312500000000000 0.1875000000000000 0.0363451496723005 1.0058765892955899 1.0058765747144782 0.0000000145811117 
0.0312500000000000 0.2031250000000000 0.0425052825291768 1.0063678611286462 1.0063678453150764 0.0000000158135698 
0.0312500000000000 0.2187500000000000 0.0491630544849839 1.0068593729049389 1.0068593558524710 0.0000000170524679 
0.0312500000000000 0.2343750000000000 0.0563191902772561 1.0073511247425364 1.0073511064438474 0.0000000182986890 
0.0312500000000000 0.2500000000000000 0.0639744153500187 1.0078431167600284 1.0078430972064480 0.0000000195535803 
0.0312500000000000 0.2656250000000000 0.0721294558543625 1.0083353490759128 1.0083353282575724 0.0000000208183404 
0.0312500000000000 0.2812500000000000 0.0807850386490189 1.0088278218088154 1.0088277997145780 0.0000000220942373 
0.0312500000000000 0.2968750000000000 0.0899418913009353 1.0093205350772747 1.0093205116948789 0.0000000233823958 
0.0312500000000000 0.3125000000000000 0.0996007420858502 1.0098134889997714 1.0098134643159469 0.0000000246838245 
0.0312500000000000 0.3281250000000000 0.1097623199888705 1.0103066836951342 1.0103066576953110 0.0000000259998232 
0.0312500000000000 0.3437500000000000 0.1204273547050469 1.0108001192817406 1.0108000919505575 0.0000000273311831 
0.0312500000000000 0.3593750000000000 0.1315965766399519 1.0112937958784407 1.0112937671993305 0.0000000286791102 
0.0312500000000000 0.3750000000000000 0.1432707169102569 1.0117877136035425 1.0117876835593316 0.0000000300442109 
0.0312500000000000 0.3906250000000000 0.1554505073443097 1.0122818725751530 1.0122818411483190 0.0000000314268340 
0.0312500000000000 0.4062500000000000 0.1681366804827135 1.0127762729115903 1.0127762400841096 0.0000000328274807 
0.0312500000000000 0.4218750000000000 0.1813299695789050 1.0132709147305197 1.0132708804845771 0.0000000342459425 
0.0312500000000000 0.4375000000000000 0.1950311085997340 1.0137657981498294 1.0137657624676528 0.0000000356821765 
0.0312500000000000 0.4531250000000000 0.2092408322260426 1.0142609232869637 1.0142608861513263 0.0000000371356375 
0.0312500000000000 0.4687500000000000 0.2239598758532455 1.0147562902591307 1.0147562516536435 0.0000000386054873 
0.0312500000000000 0.4843750000000000 0.2391889755919103 1.0152518991831065 1.0152518590927093 0.0000000400903972 
0.0312500000000000 0.5000000000000000 0.2549288682683381 1.0157477501754519 1.0157477085866857 0.0000000415887662 
0.0312500000000000 0.5156250000000000 0.2711802914251453 1.0162438433516869 1.0162438002537924 0.0000000430978946 
0.0312500000000000 0.5312500000000000 0.2879439833218446 1.0167401788272163 1.0167401342123066 0.0000000446149098 
0.0312500000000000 0.5468750000000000 0.3052206829354279 1.0172367567164640 1.0172367105805638 0.0000000461359002 
0.0312500000000000 0.5625000000000000 0.3230111299609483 1.0177335771334375 1.0177335294769569 0.0000000476564805 
0.0312500000000000 0.5781250000000000 0.3413160648121028 1.0182306401916554 1.0182305910199367 0.0000000491717187 
0.0312500000000000 0.5937500000000000 0.3601362286218169 1.0187279460032432 1.0187278953280123 0.0000000506752309 
0.0312500000000000 0.6093750000000000 0.3794723632428268 1.0192254946796109 1.0192254425197500 0.0000000521598609 
0.0312500000000000 0.6250000000000000 0.3993252112482651 1.0197232863308707 1.0197232327137742 0.0000000536170965 
0.0312500000000000 0.6406250000000000 0.4196955159322445 1.0202213210657136 1.0202212660287675 0.0000000550369461 
0.0312500000000000 0.6562500000000000 0.4405840213104432 1.0207195989920042 1.0207195425834701 0.0000000564085341 
0.0312500000000000 0.6718750000000000 0.4619914721206907 1.0212181202160229 1.0212180624966807 0.0000000577193422 
0.0312500000000000 0.6875000000000000 0.4839186138235537 1.0217168848417033 1.0217168258872555 0.0000000589544478 
0.0312500000000000 0.7031250000000000 0.5063661926029217 1.0222158929714003 1.0222158328741091 0.0000000600972911 
0.0312500000000000 0.7187500000000000 0.5293349553665950 1.0227151447049725 1.0227150835762138 0.0000000611287587 
0.0312500000000000 0.7343750000000000 0.5528256497468713 1.0232146401397475 1.0232145781126005 0.0000000620271470 
0.0312500000000000 0.7500000000000000 0.5768390241011333 1.0237143793702297 1.0237143166023579 0.0000000627678718 
0.0312500000000000 0.7656250000000000 0.6013758275124370 1.0242143624872651 1.0242142991646328 0.0000000633226322 
0.0312500000000000 0.7812500000000000 0.6264368097901003 1.0247145895776877 1.0247145259186305 0.0000000636590571 
0.0312500000000000 0.7968750000000000 0.6520227214702918 1.0252150607234995 1.0252149969836144 0.0000000637398851 
0.0312500000000000 0.8125000000000000 0.6781343138166205 1.0257157760013191 1.0257157124789060 0.0000000635224131 
0.0312500000000000 0.8281250000000000 0.7047723388207249 1.0262167354802427 1.0262166725238853 0.0000000629563575 
0.0312500000000000 0.8437500000000000 0.7319375492028640 1.0267179392212802 1.0267178772379901 0.0000000619832901 
0.0312500000000000 0.8593750000000000 0.7596306984125080 1.0272193872744477 1.0272193267407173 0.0000000605337305 
0.0312500000000000 0.8750000000000000 0.7878525406289287 1.0277210796761587 1.0277210211516217 0.0000000585245370 
0.0312500000000000 0.8906250000000000 0.8166038307617920 1.0282230164446007 1.0282229605903166 0.0000000558542841 
0.0312500000000000 0.9062500000000000 0.8458853244517487 1.0287251975727507 1.0287251451764734 0.0000000523962773 
0.0312500000000000 0.9218750000000000 0.8756977780710284 1.0292276230186954 1.0292275750298228 0.0000000479888727 
0.0312500000000000 0.9375000000000000 0.9060419487240310 1.0297302926881990 1.0297302502701529 0.0000000424180462 
0.0312500000000000 0.9531250000000000 0.9369185942479207 1.0302332064059125 1.0302331710173109 0.0000000353886016 
0.0312500000000000 0.9687500000000000 0.9683284732132197 1.0307363638644675 1.0307363373912026 0.0000000264732649 
0.0312500000000000 0.9843750000000000 1.0002723449244022 0.0000000000000000 1.0312397495117924 -1.0312397495117924 
0.0312500000000000 1.0000000000000000 1.0327509694204886 1.0317434074991028 1.0317434074991028 0.0000000000000000 
0.0468750000000000 0.0000000000000000 0.0021972656250000 1.0000000000000000 1.0000000000000000 0.0000000000000000 
0.0468750000000000 0.0156250000000000 0.0024431950443393 1.0007326919778099 1.0007326901613971 0.0000000018164128 
0.0468750000000000 0.0312500000000000 0.0031784806941039 1.0014659207904471 1.0014659171576668 0.0000000036327803 
0.0468750000000000 0.0468750000000000 0.0044041978185739 1.0021996868311200 1.0021996813821428 0.0000000054489773 
0.0468750000000000 0.0625000000000000 0.0061214232374783 1.0029339904938415 1.0029339832284467 0.0000000072653947 
0.0468750000000000 0.0781250000000000 0.0083312353479191 1.0036688321725258 1.0036688230904891 0.0000000090820367 
0.0468750000000000 0.0937500000000000 0.0110347141262967 1.0044042122617756 1.0044042013624686 0.0000000108993070 
0.0468750000000000 0.1093750000000000 0.0142329411302379 1.0051401311566586 1.0051401184388726 0.0000000127177859 
0.0468750000000000 0.1250000000000000 0.0179269995005266 1.0058765892526367 1.0058765747144782 0.0000000145381585 
0.0468750000000000 0.1406250000000000 0.0221179739630351 1.0066135869453501 1.0066135705843515 0.0000000163609986 
0.0468750000000000 0.1562500000000000 0.0268069508306590 1.0073511246313551 1.0073511064438474 0.0000000181875077 
0.0468750000000000 0.1718750000000000 0.0319950180052538 1.0080892027071584 1.0080891826886114 0.0000000200185470 
0.0468750000000000 0.1875000000000000 0.0376832649795729 1.0088278215700606 1.0088277997145780 0.0000000218554825 
0.0468750000000000 0.2031250000000000 0.0438727828392088 1.0095669816174153 1.0095669579179729 0.0000000236994424 
0.0468750000000000 0.2187500000000000 0.0505646642645358 1.0103066832472687 1.0103066576953110 0.0000000255519577 
0.0468750000000000 0.2343750000000000 0.0577600035326551 1.0110469268579123 1.0110468994433983 0.0000000274145140 
0.0468750000000000 0.2500000000000000 0.0654598965193415 1.0117877128480599 1.0117876835593316 0.0000000292887283 
0.0468750000000000 0.2656250000000000 0.0736654407009933 1.0125290416168138 1.0125290104404983 0.0000000311763155 
0.0468750000000000 0.2812500000000000 0.0823777351565831 1.0132709135635243 1.0132708804845771 0.0000000330789471 
0.0468750000000000 0.2968750000000000 0.0915978805696116 1.0140133290879476 1.0140132940895383 0.0000000349984093 
0.0468750000000000 0.3125000000000000 0.1013269792300635 1.0147562885895198 1.0147562516536435 0.0000000369358764 
0.0468750000000000 0.3281250000000000 0.1115661350363650 1.0154997924685465 1.0154997535754464 0.0000000388931001 
0.0468750000000000 0.3437500000000000 0.1223164534973437 1.0162438411251833 1.0162438002537924 0.0000000408713909 
0.0468750000000000 0.3593750000000000 0.1335790417341911 1.0169884349597198 1.0169883920878191 0.0000000428719007 
0.0468750000000000 0.3750000000000000 0.1453550084824267 1.0177335743723144 1.0177335294769569 0.0000000448953574 
0.0468750000000000 0.3906250000000000 0.1576454640938644 1.0184792597634171 1.0184792128209286 0.0000000469424886 
0.0468750000000000 0.4062500000000000 0.1704515205385812 1.0192254915328973 1.0192254425197500 0.0000000490131473 
0.0468750000000000 0.4218750000000000 0.1837742914068878 1.0199722700812752 1.0199722189737297 0.0000000511075455 
0.0468750000000000 0.4375000000000000 0.1976148919113017 1.0207195958084447 1.0207195425834701 0.0000000532249746 
0.0468750000000000 0.4531250000000000 0.2119744388885221 1.0214674691143815 1.0214674137498667 0.0000000553645148 
0.0468750000000000 0.4687500000000000 0.2268540508014075 1.0222158903988072 1.0222158328741091 0.0000000575246981 
0.0468750000000000 0.4843750000000000 0.2422548477409546 1.0229648600607915 1.0229648003576803 0.0000000597031111 
0.0468750000000000 0.5000000000000000 0.2581779514282802 1.0237143784994476 1.0237143166023579 0.0000000618970897 
0.0468750000000000 0.5156250000000000 0.2746244852166052 1.0244644461126298 1.0244643820102137 0.0000000641024160 
0.0468750000000000 0.5312500000000000 0.2915955740932399 1.0252150632980284 1.0252149969836144 0.0000000663144140 
0.0468750000000000 0.5468750000000000 0.3090923446815730 1.0259662304522887 1.0259661619252212 0.0000000685270676 
0.0468750000000000 0.5625000000000000 0.3271159252430608 1.0267179479716655 1.0267178772379901 0.0000000707336754 
0.0468750000000000 0.5781250000000000 0.3456674456792208 1.0274702162512710 1.0274701433251729 0.0000000729260980 
0.0468750000000000 0.5937500000000000 0.3647480375336255 1.0282230356853144 1.0282229605903166 0.0000000750949978 
0.0468750000000000 0.6093750000000000 0.3843588339938998 1.0289764066662945 1.0289763294372636 0.0000000772290309 
0.0468750000000000 0.6250000000000000 0.4045009698937197 1.0297303295851512 1.0297302502701529 0.0000000793149983 
0.0468750000000000 0.6406250000000000 0.4251755817148138 1.0304848048317397 1.0304847234934187 0.0000000813383210 
0.0468750000000000 0.6562500000000000 0.4463838075889668 1.0312398327937680 1.0312397495117924 0.0000000832819755 
0.0468750000000000 0.6718750000000000 0.4681267873000243 1.0319954138571863 1.0319953287303012 0.0000000851268851 
0.0468750000000000 0.6875000000000000 0.4904056622859020 1.0327515484051661 1.0327514615542697 0.0000000868508965 
0.0468750000000000 0.7031250000000000 0.5132215756405945 1.0335082368181270 1.0335081483893189 0.0000000884288081 
0.0468750000000000 0.7187500000000000 0.5365756721161881 1.0342654794730055 1.0342653896413676 0.0000000898316379 
0.0468750000000000 0.7343750000000000 0.5604690981248751 1.0350232767438485 1.0350231857166314 0.0000000910272171 
0.0468750000000000 0.7500000000000000 0.5849030017409708 1.0357816290002282 1.0357815370216239 0.0000000919786043 
0.0468750000000000 0.7656250000000000 0.6098785327029312 1.0365405366067197 1.0365404439631563 0.0000000926435635 
0.0468750000000000 0.7812500000000000 0.6353968424153762 1.0372999999219339 1.0372999069483384 0.0000000929735955 
0.0468750000000000 0.7968750000000000 0.6614590839511102 1.0380600192985914 1.0380599263845776 0.0000000929140138 
0.0468750000000000 0.8125000000000000 0.6880664120531496 1.0388205950806935 1.0388205026795800 0.0000000924011134 
0.0468750000000000 0.8281250000000000 0.7152199831367498 1.0395817276028938 1.0395816362413510 0.0000000913615428 
0.0468750000000000 0.8437500000000000 0.7429209552914350 1.0403434171875650 1.0403433274781941 0.0000000897093708 
0.0468750000000000 0.8593750000000000 0.7711704882830307 1.0411056641427388 1.0411055767987125 0.0000000873440262 
0.0468750000000000 0.8750000000000000 0.7999697435556978 1.0418684687576492 1.0418683846118086 0.0000000841458405 
0.0468750000000000 0.8906250000000000 0.8293198842339691 1.0426318312969010 1.0426317513266843 0.0000000799702167 
0.0468750000000000 0.9062500000000000 0.8592220751247888 1.0433957519932053 1.0433956773528417 0.0000000746403637 
0.0468750000000000 0.9218750000000000 0.8896774827195526 1.0441602310356952 1.0441601631000823 0.0000000679356129 
0.0468750000000000 0.9375000000000000 0.9206872751961518 1.0449252685524937 1.0449252089785086 0.0000000595739851 
0.0468750000000000 0.9531250000000000 0.9522526224210182 1.0456908645852077 1.0456908153985229 0.0000000491866847 
0.0468750000000000 0.9687500000000000 0.9843746959511727 1.0464570190505118 1.0464569827708288 0.0000000362796830 
0.0468750000000000 0.9843750000000000 1.0170546690362743 0.0000000000000000 1.0472237115064302 -1.0472237115064302 
0.0468750000000000 1.0000000000000000 1.0502937166206732 1.0479910020166328 1.0479910020166328 0.0000000000000000 