variables ="x","y","f","u","ue", "e" 
zone f=point i = 64,j = 64
0.0000000000000000 0.0000000000000000 0.0000000000000000 1.0000000000000000 1.0000000000000000 0.0000000000000000 
0.0156250000000000 0.0000000000000000 0.0002441406250000 1.0000000000000000 1.0000000000000000 0.0000000000000000 
0.0312500000000000 0.0000000000000000 0.0009765625000000 1.0000000000000000 1.0000000000000000 0.0000000000000000 
0.0468750000000000 0.0000000000000000 0.0021972656250000 1.0000000000000000 1.0000000000000000 0.0000000000000000 
0.0625000000000000 0.0000000000000000 0.0039062500000000 1.0000000000000000 1.0000000000000000 0.0000000000000000 
0.0781250000000000 0.0000000000000000 0.0061035156250000 1.0000000000000000 1.0000000000000000 0.0000000000000000 
0.0937500000000000 0.0000000000000000 0.0087890625000000 1.0000000000000000 1.0000000000000000 0.0000000000000000 
0.1093750000000000 0.0000000000000000 0.0119628906250000 1.0000000000000000 1.0000000000000000 0.0000000000000000 
0.1250000000000000 0.0000000000000000 0.0156250000000000 1.0000000000000000 1.0000000000000000 0.0000000000000000 
0.1406250000000000 0.0000000000000000 0.0197753906250000 1.0000000000000000 1.0000000000000000 0.0000000000000000 
0.1562500000000000 0.0000000000000000 0.0244140625000000 1.0000000000000000 1.0000000000000000 0.0000000000000000 
0.1718750000000000 0.0000000000000000 0.0295410156250000 1.0000000000000000 1.0000000000000000 0.0000000000000000 
0.1875000000000000 0.0000000000000000 0.0351562500000000 1.0000000000000000 1.0000000000000000 0.0000000000000000 
0.2031250000000000 0.0000000000000000 0.0412597656250000 1.0000000000000000 1.0000000000000000 0.0000000000000000 
0.2187500000000000 0.0000000000000000 0.0478515625000000 1.0000000000000000 1.0000000000000000 0.0000000000000000 
0.2343750000000000 0.0000000000000000 0.0549316406250000 1.0000000000000000 1.0000000000000000 0.0000000000000000 
0.2500000000000000 0.0000000000000000 0.0625000000000000 1.0000000000000000 1.0000000000000000 0.0000000000000000 
0.2656250000000000 0.0000000000000000 0.0705566406250000 1.0000000000000000 1.0000000000000000 0.0000000000000000 
0.2812500000000000 0.0000000000000000 0.0791015625000000 1.0000000000000000 1.0000000000000000 0.0000000000000000 
0.2968750000000000 0.0000000000000000 0.0881347656250000 1.0000000000000000 1.0000000000000000 0.0000000000000000 
0.3125000000000000 0.0000000000000000 0.0976562500000000 1.0000000000000000 1.0000000000000000 0.0000000000000000 
0.3281250000000000 0.0000000000000000 0.1076660156250000 1.0000000000000000 1.0000000000000000 0.0000000000000000 
0.3437500000000000 0.0000000000000000 0.1181640625000000 1.0000000000000000 1.0000000000000000 0.0000000000000000 
0.3593750000000000 0.0000000000000000 0.1291503906250000 1.0000000000000000 1.0000000000000000 0.0000000000000000 
0.3750000000000000 0.0000000000000000 0.1406250000000000 1.0000000000000000 1.0000000000000000 0.0000000000000000 
0.3906250000000000 0.0000000000000000 0.1525878906250000 1.0000000000000000 1.0000000000000000 0.0000000000000000 
0.4062500000000000 0.0000000000000000 0.1650390625000000 1.0000000000000000 1.0000000000000000 0.0000000000000000 
0.4218750000000000 0.0000000000000000 0.1779785156250000 1.0000000000000000 1.0000000000000000 0.0000000000000000 
0.4375000000000000 0.0000000000000000 0.1914062500000000 1.0000000000000000 1.0000000000000000 0.0000000000000000 
0.4531250000000000 0.0000000000000000 0.2053222656250000 1.0000000000000000 1.0000000000000000 0.0000000000000000 
0.4687500000000000 0.0000000000000000 0.2197265625000000 1.0000000000000000 1.0000000000000000 0.0000000000000000 
0.4843750000000000 0.0000000000000000 0.2346191406250000 1.0000000000000000 1.0000000000000000 0.0000000000000000 
0.5000000000000000 0.0000000000000000 0.2500000000000000 1.0000000000000000 1.0000000000000000 0.0000000000000000 
0.5156250000000000 0.0000000000000000 0.2658691406250000 1.0000000000000000 1.0000000000000000 0.0000000000000000 
0.5312500000000000 0.0000000000000000 0.2822265625000000 1.0000000000000000 1.0000000000000000 0.0000000000000000 
0.5468750000000000 0.0000000000000000 0.2990722656250000 1.0000000000000000 1.0000000000000000 0.0000000000000000 
0.5625000000000000 0.0000000000000000 0.3164062500000000 1.0000000000000000 1.0000000000000000 0.0000000000000000 
0.5781250000000000 0.0000000000000000 0.3342285156250000 1.0000000000000000 1.0000000000000000 0.0000000000000000 
0.5937500000000000 0.0000000000000000 0.3525390625000000 1.0000000000000000 1.0000000000000000 0.0000000000000000 
0.6093750000000000 0.0000000000000000 0.3713378906250000 1.0000000000000000 1.0000000000000000 0.0000000000000000 
0.6250000000000000 0.0000000000000000 0.3906250000000000 1.0000000000000000 1.0000000000000000 0.0000000000000000 
0.6406250000000000 0.0000000000000000 0.4104003906250000 1.0000000000000000 1.0000000000000000 0.0000000000000000 
0.6562500000000000 0.0000000000000000 0.4306640625000000 1.0000000000000000 1.0000000000000000 0.0000000000000000 
0.6718750000000000 0.0000000000000000 0.4514160156250000 1.0000000000000000 1.0000000000000000 0.0000000000000000 
0.6875000000000000 0.0000000000000000 0.4726562500000000 1.0000000000000000 1.0000000000000000 0.0000000000000000 
0.7031250000000000 0.0000000000000000 0.4943847656250000 1.0000000000000000 1.0000000000000000 0.0000000000000000 
0.7187500000000000 0.0000000000000000 0.5166015625000000 1.0000000000000000 1.0000000000000000 0.0000000000000000 
0.7343750000000000 0.0000000000000000 0.5393066406250000 1.0000000000000000 1.0000000000000000 0.0000000000000000 
0.7500000000000000 0.0000000000000000 0.5625000000000000 1.0000000000000000 1.0000000000000000 0.0000000000000000 
0.7656250000000000 0.0000000000000000 0.5861816406250000 1.0000000000000000 1.0000000000000000 0.0000000000000000 
0.7812500000000000 0.0000000000000000 0.6103515625000000 1.0000000000000000 1.0000000000000000 0.0000000000000000 
0.7968750000000000 0.0000000000000000 0.6350097656250000 1.0000000000000000 1.0000000000000000 0.0000000000000000 
0.8125000000000000 0.0000000000000000 0.6601562500000000 1.0000000000000000 1.0000000000000000 0.0000000000000000 
0.8281250000000000 0.0000000000000000 0.6857910156250000 1.0000000000000000 1.0000000000000000 0.0000000000000000 
0.8437500000000000 0.0000000000000000 0.7119140625000000 1.0000000000000000 1.0000000000000000 0.0000000000000000 
0.8593750000000000 0.0000000000000000 0.7385253906250000 1.0000000000000000 1.0000000000000000 0.0000000000000000 
0.8750000000000000 0.0000000000000000 0.7656250000000000 1.0000000000000000 1.0000000000000000 0.0000000000000000 
0.8906250000000000 0.0000000000000000 0.7932128906250000 1.0000000000000000 1.0000000000000000 0.0000000000000000 
0.9062500000000000 0.0000000000000000 0.8212890625000000 1.0000000000000000 1.0000000000000000 0.0000000000000000 
0.9218750000000000 0.0000000000000000 0.8498535156250000 1.0000000000000000 1.0000000000000000 0.0000000000000000 
0.9375000000000000 0.0000000000000000 0.8789062500000000 1.0000000000000000 1.0000000000000000 0.0000000000000000 
0.9531250000000000 0.0000000000000000 0.9084472656250000 1.0000000000000000 1.0000000000000000 0.0000000000000000 
0.9687500000000000 0.0000000000000000 0.9384765625000000 1.0000000000000000 1.0000000000000000 0.0000000000000000 
0.9843750000000000 0.0000000000000000 0.9689941406250000 1.0000000000000000 1.0000000000000000 0.0000000000000000 
1.0000000000000000 0.0000000000000000 1.0000000000000000 1.0000000000000000 1.0000000000000000 0.0000000000000000 
0.0000000000000000 0.0156250000000000 0.0002441406250000 1.0000000000000000 1.0000000000000000 0.0000000000000000 
0.0156250000000000 0.0156250000000000 0.0004884004738427 118.8079115026384613 1.0002441704297478 117.8076673322087089 
0.0312500000000000 0.0156250000000000 0.0012212993169906 263.8144171209081605 1.0004884004786945 262.8139287204294874 
0.0468750000000000 0.0156250000000000 0.0024431950443393 355.1120480466944969 1.0007326901613971 354.1113153565331118 
0.0625000000000000 0.0156250000000000 0.0041544457205496 528.9920147860771067 1.0009770394924165 527.9910377465846523 
0.0781250000000000 0.0156250000000000 0.0063554095851182 595.8788643402396019 1.0012214484863171 594.8776428917533394 
0.0937500000000000 0.0156250000000000 0.0090464450524496 798.8264712494719788 1.0014659171576668 797.8250053323142765 
0.1093750000000000 0.0156250000000000 0.0122279107119267 842.4941291390713332 1.0017104455210371 841.4924186935503485 
0.1250000000000000 0.0156250000000000 0.0159001653279822 1075.4248240527806502 1.0019550335910028 1074.4228690191896476 
0.1406250000000000 0.0156250000000000 0.0200635678401699 1098.3725953686880530 1.0021996813821428 1097.3703956873059724 
0.1562500000000000 0.0156250000000000 0.0247184773632356 1360.6214954720171590 1.0024443889090391 1359.6190510831081610 
0.1718750000000000 0.0156250000000000 0.0298652531871889 1364.2973124833540624 1.0026891561862772 1363.2946233271677556 
0.1875000000000000 0.0156250000000000 0.0355042547773742 1655.8733143660815585 1.0029339832284467 1654.8703803828529999 
0.2031250000000000 0.0156250000000000 0.0416358417745420 1642.9266054227605309 1.0031788700501403 1641.9234265527104526 
0.2187500000000000 0.0156250000000000 0.0482603739949202 1962.2017745972621015 1.0034238166659546 1961.1983507805962290 
0.2343750000000000 0.0156250000000000 0.0553782114302858 1934.1701414262558956 1.0036688230904891 1933.1664726031654027 
0.2500000000000000 0.0156250000000000 0.0629897142480360 2280.0767037146079019 1.0039138893383475 2279.0727898252694104 
0.2656250000000000 0.0156250000000000 0.0710952427912597 2239.5919003377089211 1.0041590154241371 2238.5877413222847281 
0.2812500000000000 0.0156250000000000 0.0796951575788092 2609.3722620675680446 1.0044042013624686 2608.3678578662056680 
0.2968750000000000 0.0156250000000000 0.0887898193053711 2557.8946364566218108 1.0046494471679557 2556.8899870094537619 
0.3125000000000000 0.0156250000000000 0.0983795888415385 2949.2462159512283506 1.0048947528552166 2948.2413211983730434 
0.3281250000000000 0.0156250000000000 0.1084648272338822 2889.2103263918047560 1.0051401184388726 2888.2051862733660528 
0.3437500000000000 0.0156250000000000 0.1190458957050222 3298.1195666828957656 1.0053855439335486 3297.1141811389620671 
0.3593750000000000 0.0156250000000000 0.1301231556536994 3230.7577535335963148 1.0056310293538733 3229.7521225042423794 
0.3750000000000000 0.0156250000000000 0.1416969686548472 3653.5568137544637466 1.0058765747144782 3652.5509371797493259 
0.3906250000000000 0.0156250000000000 0.1537676964596630 3580.9656586060987138 1.0061221800299998 3579.9595364260685528 
0.4062500000000000 0.0156250000000000 0.1663357009956803 4012.2657707544312871 1.0063678453150764 4011.2594029091160337 
0.4218750000000000 0.0156250000000000 0.1794013443668400 3935.3137181294036964 1.0066135705843515 3934.3071045588194465 
0.4375000000000000 0.0156250000000000 0.1929649888535619 4369.9800407414259098 1.0068593558524710 4368.9731813855732980 
0.4531250000000000 0.0156250000000000 0.2070269969128173 4290.2753840053910608 1.0071052011340851 4289.2682788042566244 
0.4687500000000000 0.0156250000000000 0.2215877311781998 4721.4904247984568428 1.0073511064438474 4720.4830736920130221 
0.4843750000000000 0.0156250000000000 0.2366475544599978 4639.4213201458687763 1.0075970717964147 4638.4137230740725499 
0.5000000000000000 0.0156250000000000 0.2522068297452659 5060.5384133947327427 1.0078430972064480 5059.5305702975265376 
0.5156250000000000 0.0156250000000000 0.2682659201978971 4977.1284842691084123 1.0080891826886114 4976.1203950864201033 
0.5312500000000000 0.0156250000000000 0.2848251891586941 5379.8744327792046533 1.0083353282575724 5378.8660974509466541 
0.5468750000000000 0.0156250000000000 0.3018850001454423 5294.9439312813747165 1.0085815339280031 5293.9353497474467076 
0.5625000000000000 0.0156250000000000 0.3194457168529804 5671.1622303838757944 1.0088277997145780 5670.1534025841610855 
0.5781250000000000 0.0156250000000000 0.3375077031532732 5585.0470974446352557 1.0090741256319760 5584.0380233190035142 
0.5937500000000000 0.0156250000000000 0.3560713230954834 5925.0774440141685773 1.0093205116948789 5924.0681235024740090 
0.6093750000000000 0.0156250000000000 0.3751369409060437 5836.9661753836498974 1.0095669579179729 5835.9566084257321563 
0.6250000000000000 0.0156250000000000 0.3947049209887283 6131.2334619086432212 1.0098134643159469 6130.2236484443274094 
0.6406250000000000 0.0156250000000000 0.4147756279247259 6040.7401165173432673 1.0100600309034942 6039.7300564864399348 
0.6562500000000000 0.0156250000000000 0.4353494264727109 6278.3117491927250740 1.0103066576953110 6277.3014425350293095 
0.6718750000000000 0.0156250000000000 0.4564266815689161 6183.9693254791436630 1.0105533447060975 6182.9587721344378224 
0.6875000000000000 0.0156250000000000 0.4780077583272046 6354.0038067879449954 1.0108000919505575 6352.9930066959941541 
0.7031250000000000 0.0156250000000000 0.5000930220391419 6254.6601623235274019 1.0110468994433983 6253.6491154240839023 
0.7187500000000000 0.0156250000000000 0.5226828381740680 6345.1825988088339727 1.0112937671993305 6344.1713050416346960 
0.7343750000000000 0.0156250000000000 0.5457775723791706 6238.7066583639834789 1.0115406952330690 6237.6951176687507541 
0.7500000000000000 0.0156250000000000 0.5693775904795555 6237.8628522669141603 1.0117876835593316 6236.8510645833548551 
0.7656250000000000 0.0156250000000000 0.5934832584783206 6122.3514080717814068 1.0120347321928398 6121.3393733395887466 
0.7812500000000000 0.0156250000000000 0.6180949425566273 6017.3844787415337123 1.0122818411483190 6016.3721969003854610 
0.7968750000000000 0.0156250000000000 0.6432130090737735 5890.0424637901833194 1.0125290104404983 5889.0299347797426890 
0.8125000000000000 0.0156250000000000 0.6688378245672648 5668.3491715069885686 1.0127762400841096 5667.3363952669042192 
0.8281250000000000 0.0156250000000000 0.6949697557528880 5526.4432677785889609 1.0130235300938895 5525.4302442484950006 
0.8437500000000000 0.0156250000000000 0.7216091695247830 5174.7463407775821906 1.0132708804845771 5173.7330698970972662 
0.8593750000000000 0.0156250000000000 0.7487564329555155 5014.6368713483789179 1.0135182912709160 5013.6233530571080337 
0.8750000000000000 0.0156250000000000 0.7764119132961491 4519.6785668397387781 1.0137657624676528 4518.6648010772714770 
0.8906250000000000 0.0156250000000000 0.8045759779763183 4337.4051375092076341 1.0140132940895383 4336.3911242151179977 
0.9062500000000000 0.0156250000000000 0.8332489946043000 3685.5164668802317465 1.0142608861513263 3684.5022059940802137 
0.9218750000000000 0.0156250000000000 0.8624313309670872 3477.0789811382414882 1.0145085386677741 3476.0644725995734916 
0.9375000000000000 0.0156250000000000 0.8921233550304615 2650.0456266049886835 1.0147562516536435 2649.0308703533351036 
0.9531250000000000 0.0156250000000000 0.9223254349390645 2395.0833566404749035 1.0150040251236991 2394.0683526153511593 
0.9687500000000000 0.0156250000000000 0.9530379390164715 1377.5819840256065163 1.0152518590927093 1376.5667321665137024 
0.9843750000000000 0.0156250000000000 0.9842612357652643 882.6506057233275442 1.0154997535754464 881.6351059697520895 
1.0000000000000000 0.0156250000000000 1.0159956938671024 1.0157477085866857 1.0157477085866857 0.0000000000000000 
0.0000000000000000 0.0312500000000000 0.0009765625000000 1.0000000000000000 1.0000000000000000 0.0000000000000000 
0.0156250000000000 0.0312500000000000 0.0012212993169906 264.3652713606666111 1.0004884004786945 263.3647829601879380 
0.0312500000000000 0.0312500000000000 0.0019550332802586 482.8843325446115955 1.0009770394924165 481.8833555051191979 
0.0468750000000000 0.0312500000000000 0.0031784806941039 793.4491908090435572 1.0014659171576668 792.4477248918858550 
0.0625000000000000 0.0312500000000000 0.0048923585624561 969.5963243212735279 1.0019550335910028 968.5943692876825253 
0.0781250000000000 0.0312500000000000 0.0070973845894439 1329.5636468154852992 1.0024443889090391 1328.5612024265763011 
0.0937500000000000 0.0312500000000000 0.0097942771799653 1466.9660465636904974 1.0029339832284467 1465.9631125804619387 
0.1093750000000000 0.0312500000000000 0.0129837554402577 1877.0977673961695018 1.0034238166659546 1876.0943435795036294 
0.1250000000000000 0.0312500000000000 0.0166665391784687 1978.5030008762846592 1.0039138893383475 1977.4990869869463950 
0.1406250000000000 0.0312500000000000 0.0208433489052270 2440.0095074292948993 1.0044042013624686 2439.0051032279325227 
0.1562500000000000 0.0312500000000000 0.0255149058342145 2509.9776215472620606 1.0048947528552166 2508.9727267944067535 
0.1718750000000000 0.0312500000000000 0.0306819318827377 3021.5741641949462064 1.0053855439335486 3020.5687786510125079 
0.1875000000000000 0.0312500000000000 0.0363451496723005 3062.6235179145132861 1.0058765747144782 3061.6176413397988654 
0.2031250000000000 0.0312500000000000 0.0425052825291768 3624.2882923213969661 1.0063678453150764 3623.2819244760817128 
0.2187500000000000 0.0312500000000000 0.0491630544849839 3641.5201931902702199 1.0068593558524710 3640.5133338344176082 
0.2343750000000000 0.0312500000000000 0.0563191902772561 4249.6291847560796668 1.0073511064438474 4248.6218336496358461 
0.2500000000000000 0.0312500000000000 0.0639744153500187 4245.0108574558216787 1.0078430972064480 4244.0030143586154736 
0.2656250000000000 0.0312500000000000 0.0721294558543625 4897.9594120771653252 1.0083353282575724 4896.9510767489073260 
0.2812500000000000 0.0312500000000000 0.0807850386490189 4876.7920776570381349 1.0088277997145780 4875.7832498573234261 
0.2968750000000000 0.0312500000000000 0.0899418913009353 5568.2972054490928713 1.0093205116948789 5567.2878849373983030 
0.3125000000000000 0.0312500000000000 0.0996007420858502 5531.6676129242714524 1.0098134643159469 5530.6577994599556405 
0.3281250000000000 0.0312500000000000 0.1097623199888705 6258.2389948696099964 1.0103066576953110 6257.2286882119142319 
0.3437500000000000 0.0312500000000000 0.1204273547050469 6211.2996078701744409 1.0108000919505575 6210.2888077782235996 
0.3593750000000000 0.0312500000000000 0.1315965766399519 6963.7571595804147364 1.0112937671993305 6962.7458658132154596 
0.3750000000000000 0.0312500000000000 0.1432707169102569 6906.4412590912816086 1.0117876835593316 6905.4294714077223034 
0.3906250000000000 0.0312500000000000 0.1554505073443097 7679.1414638312626266 1.0122818411483190 7678.1291819901143754 
0.4062500000000000 0.0312500000000000 0.1681366804827135 7616.1696055339116356 1.0127762400841096 7615.1568292938272862 
0.4218750000000000 0.0312500000000000 0.1813299695789050 8396.8199853607366094 1.0132708804845771 8395.8067144802516850 
0.4375000000000000 0.0312500000000000 0.1950311085997340 8326.7143211537841125 1.0137657624676528 8325.7005553913168114 
0.4531250000000000 0.0312500000000000 0.2092408322260426 9107.3322208724566735 1.0142608861513263 9106.3179599863051408 
0.4687500000000000 0.0312500000000000 0.2239598758532455 9034.0909704064815742 1.0147562516536435 9033.0762141548275395 
0.4843750000000000 0.0312500000000000 0.2391889755919103 9799.1968143388858152 1.0152518590927093 9798.1815624797927740 
0.5000000000000000 0.0312500000000000 0.2549288682683381 9719.7510333254231227 1.0157477085866857 9718.7352856168363360 
0.5156250000000000 0.0312500000000000 0.2711802914251453 10458.9194233615435223 1.0162438002537924 10457.9031795612900169 
0.5312500000000000 0.0312500000000000 0.2879439833218446 10376.3576218186299229 1.0167401342123066 10375.3408816844184912 
0.5468750000000000 0.0312500000000000 0.3052206829354279 11070.8994029323948780 1.0172367105805638 11069.8821662218142592 
0.5625000000000000 0.0312500000000000 0.3230111299609483 10980.4156442971489014 1.0177335294769569 10979.3979107676714193 
0.5781250000000000 0.0312500000000000 0.3413160648121028 11617.4860147420858993 1.0182305910199367 11616.4677841510656435 
0.5937500000000000 0.0312500000000000 0.3601362286218169 11521.0681936338532978 1.0187278953280123 11520.0494657385261235 
0.6093750000000000 0.0312500000000000 0.3794723632428268 12078.9527376912519685 1.0192254425197500 12077.9335122487318586 
0.6250000000000000 0.0312500000000000 0.3993252112482651 11970.0122673879159265 1.0197232327137742 11968.9925441552022676 
0.6406250000000000 0.0312500000000000 0.4196955159322445 12433.6031194763309031 1.0202212660287675 12432.5828982103030285 
0.6562500000000000 0.0312500000000000 0.4405840213104432 12312.9748143473752862 1.0207195425834701 12311.9540948047924758 
0.6718750000000000 0.0312500000000000 0.4619914721206907 12657.7951258219109150 1.0212180624966807 12656.7739077594142145 
0.6875000000000000 0.0312500000000000 0.4839186138235537 12517.1066430719965865 1.0217168258872555 12516.0849262461088074 
0.7031250000000000 0.0312500000000000 0.5063661926029217 12726.1014762012509891 1.0222158328741091 12725.0792603683767084 
0.7187500000000000 0.0312500000000000 0.5293349553665950 12564.9647132814370707 1.0227150835762138 12563.9419981978608121 
0.7343750000000000 0.0312500000000000 0.5528256497468713 12611.4025065479581826 1.0232145781126005 12610.3792919698462356 
0.7500000000000000 0.0312500000000000 0.5768390241011333 12419.7484472138839919 1.0237143166023579 12418.7247328972807736 
0.7656250000000000 0.0312500000000000 0.6013758275124370 12285.0757823864805687 1.0242142991646328 12284.0515680873158999 
0.7812500000000000 0.0312500000000000 0.6264368097901003 12061.3352072451871209 1.0247145259186305 12060.3104927192689502 
0.7968750000000000 0.0312500000000000 0.6520227214702918 11717.0884944262397767 1.0252149969836144 11716.0632794292559993 
0.8125000000000000 0.0312500000000000 0.6781343138166205 11449.5274315587812453 1.0257157124789060 11448.5017158463015221 
0.8281250000000000 0.0312500000000000 0.7047723388207249 10876.1258891792349459 1.0262166725238853 10875.0996725067107036 
0.8437500000000000 0.0312500000000000 0.7319375492028640 10561.7827645181350817 1.0267178772379901 10560.7560466408976936 
0.8593750000000000 0.0312500000000000 0.7596306984125080 9729.4551536969556764 1.0272193267407173 9728.4279343702146434 
0.8750000000000000 0.0312500000000000 0.7878525406289287 9354.5145354486412543 1.0277210211516217 9353.4868144274896622 
0.8906250000000000 0.0312500000000000 0.8166038307617920 8242.8364465273571113 1.0282229605903166 8241.8082235667661735 
0.9062500000000000 0.0312500000000000 0.8458853244517487 7802.1201699977236785 1.0287251451764734 7801.0914448525472835 
0.9218750000000000 0.0312500000000000 0.8756977780710284 6379.6963599309510755 1.0292275750298228 6378.6671323559212397 
0.9375000000000000 0.0312500000000000 0.9060419487240310 5865.1869891770102186 1.0297302502701529 5864.1572589267398143 
0.9531250000000000 0.0312500000000000 0.9369185942479207 4076.2192562626469226 1.0302331710173109 4075.1890230916296787 
0.9687500000000000 0.0312500000000000 0.9683284732132197 3333.7504334340110290 1.0307363373912026 3332.7196970966197114 
0.9843750000000000 0.0312500000000000 1.0002723449244022 1369.5148158204560787 1.0312397495117924 1368.4835760709443093 
1.0000000000000000 0.0312500000000000 1.0327509694204886 1.0317434074991028 1.0317434074991028 0.0000000000000000 
0.0000000000000000 0.0468750000000000 0.0021972656250000 1.0000000000000000 1.0000000000000000 0.0000000000000000 
0.0156250000000000 0.0468750000000000 0.0024431950443393 368.6389962305353265 1.0007326901613971 367.6382635403739414 
0.0312500000000000 0.0468750000000000 0.0031784806941039 794.9879795771048521 1.0014659171576668 793.9865136599471498 
0.0468750000000000 0.0468750000000000 0.0044041978185739 1107.5302422686634145 1.0021996813821428 1106.5280425872813339 
0.0625000000000000 0.0468750000000000 0.0061214232374783 1596.0016862094253156 1.0029339832284467 1594.9987522261967570 
0.0781250000000000 0.0468750000000000 0.0083312353479191 1857.8524815624839448 1.0036688230904891 1856.8488127393934519 
0.0937500000000000 0.0468750000000000 0.0110347141262967 2410.8406238931283951 1.0044042013624686 2409.8362196917660185 
0.1093750000000000 0.0468750000000000 0.0142329411302379 2626.6008902006738026 1.0051401184388726 2625.5957500822350994 
0.1250000000000000 0.0468750000000000 0.0179269995005266 3245.7487854611558760 1.0058765747144782 3244.7429088864414553 
0.1406250000000000 0.0468750000000000 0.0221179739630351 3420.5078850626487110 1.0066135705843515 3419.5012714920644612 
0.1562500000000000 0.0468750000000000 0.0268069508306590 4106.1489380099455957 1.0073511064438474 4105.1415869035017749 
0.1718750000000000 0.0468750000000000 0.0319950180052538 4244.8165980161593325 1.0080891826886114 4243.8085088334710235 
0.1875000000000000 0.0468750000000000 0.0376832649795729 4996.3499160134952035 1.0088277997145780 4995.3410882137804947 
0.2031250000000000 0.0468750000000000 0.0438727828392088 5104.0641960453185675 1.0095669579179729 5103.0546290874008264 
0.2187500000000000 0.0468750000000000 0.0505646642645358 5919.3402604388948021 1.0103066576953110 5918.3299537811990376 
0.2343750000000000 0.0468750000000000 0.0577600035326551 6000.8058353534979688 1.0110468994433983 5999.7947884540544692 
0.2500000000000000 0.0468750000000000 0.0654598965193415 6876.4774974989704788 1.0117876835593316 6875.4657098154111736 
0.2656250000000000 0.0468750000000000 0.0736654407009933 6936.3816176618138343 1.0125290104404983 6935.3690886513732039 
0.2812500000000000 0.0468750000000000 0.0823777351565831 7867.3130531858669201 1.0132708804845771 7866.2997823053819957 
0.2968750000000000 0.0468750000000000 0.0915978805696116 7909.6574864983103907 1.0140132940895383 7908.6434732042207543 
0.3125000000000000 0.0468750000000000 0.1013269792300635 8889.2825759843508422 1.0147562516536435 8888.2678197326968075 
0.3281250000000000 0.0468750000000000 0.1115661350363650 8917.7982418684914592 1.0154997535754464 8916.7827421149158909 
0.3437500000000000 0.0468750000000000 0.1223164534973437 9937.5858939199733868 1.0162438002537924 9936.5696501197198813 
0.3593750000000000 0.0468750000000000 0.1335790417341911 9955.1048865456050407 1.0169883920878191 9954.0878981535170169 
0.3750000000000000 0.0468750000000000 0.1453550084824267 11004.8922049734101165 1.0177335294769569 11003.8744714439326344 
0.3906250000000000 0.0468750000000000 0.1576454640938644 11013.7786932512171916 1.0184792128209286 11012.7602140383969527 
0.4062500000000000 0.0468750000000000 0.1704515205385812 12081.2705507532700722 1.0192254425197500 12080.2513253107499622 
0.4218750000000000 0.0468750000000000 0.1837742914068878 12082.7922429206391826 1.0199722189737297 12081.7722707016655477 
0.4375000000000000 0.0468750000000000 0.1976148919113017 13153.9158884238568135 1.0207195425834701 13152.8951688812740031 
0.4531250000000000 0.0468750000000000 0.2119744388885221 13148.6661934368512448 1.0214674137498667 13147.6447260231016116 
0.4687500000000000 0.0468750000000000 0.2268540508014075 14207.1585097756706091 1.0222158328741091 14206.1362939427963283 
0.4843750000000000 0.0468750000000000 0.2422548477409546 14194.4933346059788164 1.0229648003576803 14193.4703698056218855 
0.5000000000000000 0.0468750000000000 0.2581779514282802 15222.2332651819160674 1.0237143166023579 15221.2095508653128491 
0.5156250000000000 0.0468750000000000 0.2746244852166052 15200.7160406957846135 1.0244643820102137 15199.6915763137749309 
0.5312500000000000 0.0468750000000000 0.2915955740932399 16177.3614909857587918 1.0252149969836144 16176.3362759887750144 
0.5468750000000000 0.0468750000000000 0.3090923446815730 16144.2081344821126550 1.0259661619252212 16143.1821683201869746 
0.5625000000000000 0.0468750000000000 0.3271159252430608 17047.5671128180147207 1.0267178772379901 17046.5403949407773325 
0.5781250000000000 0.0468750000000000 0.3456674456792208 16999.0756369485170580 1.0274701433251729 16998.0481668051907036 
0.5937500000000000 0.0468750000000000 0.3647480375336255 17804.8644053856114624 1.0282229605903166 17803.8361824250205245 
0.6093750000000000 0.0468750000000000 0.3843588339938998 17735.9510486773433513 1.0289763294372636 17734.9220723479047592 
0.6250000000000000 0.0468750000000000 0.4045009698937197 18418.1468871645374747 1.0297302502701529 18417.1171569142679800 
0.6406250000000000 0.0468750000000000 0.4251755817148138 18322.8035812455200357 1.0304847234934187 18321.7730965220252983 
0.6562500000000000 0.0468750000000000 0.4463838075889668 18853.4655361256300239 1.0312397495117924 18852.4342963761191641 
0.6718750000000000 0.0468750000000000 0.4681267873000243 18724.3091138955351198 1.0319953287303012 18723.2771185668061662 
0.6875000000000000 0.0468750000000000 0.4904056622859020 19073.9809825550473761 1.0327514615542697 19072.9482310934945417 
0.7031250000000000 0.0468750000000000 0.5132215756405945 18902.6805857739018393 1.0335081483893189 18901.6470776255118835 
0.7187500000000000 0.0468750000000000 0.5365756721161881 19040.3532982015312882 1.0342653896413676 19039.3190328118907928 
0.7343750000000000 0.0468750000000000 0.5604690981248751 18817.2810270400659647 1.0350231857166314 18816.2460038543504197 
0.7500000000000000 0.0468750000000000 0.5849030017409708 18710.7599119365004299 1.0357815370216239 18709.7241303994778718 
0.7656250000000000 0.0468750000000000 0.6098785327029312 18425.4244404408964328 1.0365404439631563 18424.3878999969347205 
0.7812500000000000 0.0468750000000000 0.6353968424153762 18041.3292129969304369 1.0372999069483384 18040.2919130899826996 
0.7968750000000000 0.0468750000000000 0.6614590839511102 17681.9993506770879321 1.0380599263845776 17680.9612907507034834 
0.8125000000000000 0.0468750000000000 0.6880664120531496 16986.1246495374107326 1.0388205026795800 16985.0858290347314323 
0.8281250000000000 0.0468750000000000 0.7152199831367498 16540.1299062613325077 1.0395816362413510 16539.0903246250927623 
0.8437500000000000 0.0468750000000000 0.7429209552914350 15497.4516324812666426 1.0403433274781941 15496.4112891537879477 