variables ="x","y","f","u","ue", "e" 
zone f=point i = 9,j = 9
0.0000000000000000 0.0000000000000000 -0.0000000000000000 0.0000000000000000 0.0000000000000000 0.0000000000000000 
0.1250000000000000 0.0000000000000000 0.0000000000000000 0.0000000000000000 0.0000000000000000 0.0000000000000000 
0.2500000000000000 0.0000000000000000 0.0000000000000000 0.0000000000000000 0.0000000000000000 0.0000000000000000 
0.3750000000000000 0.0000000000000000 0.0000000000000000 0.0000000000000000 0.0000000000000000 0.0000000000000000 
0.5000000000000000 0.0000000000000000 0.0000000000000000 0.0000000000000000 0.0000000000000000 0.0000000000000000 
0.6250000000000000 0.0000000000000000 0.0000000000000000 0.0000000000000000 0.0000000000000000 0.0000000000000000 
0.7500000000000000 0.0000000000000000 0.0000000000000000 0.0000000000000000 0.0000000000000000 0.0000000000000000 
0.8750000000000000 0.0000000000000000 0.0000000000000000 0.0000000000000000 0.0000000000000000 0.0000000000000000 
1.0000000000000000 0.0000000000000000 0.0000000000000000 0.0000000000000000 0.0000000000000000 0.0000000000000000 
0.0000000000000000 0.1250000000000000 0.0000000000000000 0.0000000000000000 0.0000000000000000 0.0000000000000000 
0.1250000000000000 0.1250000000000000 -2.8907402014504791 0.1464612100347782 0.1464466094067262 0.0000146006280519 
0.2500000000000000 0.1250000000000000 -5.3413914118553025 0.2706250285159364 0.2705980500730985 0.0000269784428379 
0.3750000000000000 0.1250000000000000 -6.9788641996388794 0.3535886396275358 0.3535533905932738 0.0000352490342620 
0.5000000000000000 0.1250000000000000 -7.5538681765889439 0.3827215856448428 0.3826834323650898 0.0000381532797530 
0.6250000000000000 0.1250000000000000 -6.9788641996388794 0.3535886396275358 0.3535533905932738 0.0000352490342620 
0.7500000000000000 0.1250000000000000 -5.3413914118553034 0.2706250285159364 0.2705980500730985 0.0000269784428379 
0.8750000000000000 0.1250000000000000 -2.8907402014504799 0.1464612100347783 0.1464466094067263 0.0000146006280520 
1.0000000000000000 0.1250000000000000 -0.0000000000000009 0.0000000000000000 0.0000000000000000 0.0000000000000000 
0.0000000000000000 0.2500000000000000 0.0000000000000000 0.0000000000000000 0.0000000000000000 0.0000000000000000 
0.1250000000000000 0.2500000000000000 -5.3413914118553025 0.2706250285159364 0.2705980500730985 0.0000269784428379 
0.2500000000000000 0.2500000000000000 -9.8696044010893562 0.5000498496623139 0.4999999999999999 0.0000498496623140 
0.3750000000000000 0.2500000000000000 -12.8952595884442456 0.6533466141607791 0.6532814824381882 0.0000651317225909 
0.5000000000000000 0.2500000000000000 -13.9577283992777570 0.7071772792550716 0.7071067811865475 0.0000704980685241 
0.6250000000000000 0.2500000000000000 -12.8952595884442456 0.6533466141607791 0.6532814824381882 0.0000651317225909 
0.7500000000000000 0.2500000000000000 -9.8696044010893580 0.5000498496623139 0.5000000000000000 0.0000498496623139 
0.8750000000000000 0.2500000000000000 -5.3413914118553043 0.2706250285159368 0.2705980500730986 0.0000269784428382 
1.0000000000000000 0.2500000000000000 -0.0000000000000017 0.0000000000000001 0.0000000000000001 0.0000000000000000 
0.0000000000000000 0.3750000000000000 0.0000000000000000 0.0000000000000000 0.0000000000000000 0.0000000000000000 
0.1250000000000000 0.3750000000000000 -6.9788641996388794 0.3535886396275358 0.3535533905932738 0.0000352490342620 
0.2500000000000000 0.3750000000000000 -12.8952595884442456 0.6533466141607791 0.6532814824381882 0.0000651317225909 
0.3750000000000000 0.3750000000000000 -16.8484686007282356 0.8536384892898498 0.8535533905932737 0.0000850986965760 
0.5000000000000000 0.3750000000000000 -18.2366510002995490 0.9239716426767156 0.9238795325112867 0.0000921101654289 
0.6250000000000000 0.3750000000000000 -16.8484686007282356 0.8536384892898498 0.8535533905932737 0.0000850986965760 
0.7500000000000000 0.3750000000000000 -12.8952595884442456 0.6533466141607791 0.6532814824381883 0.0000651317225908 
0.8750000000000000 0.3750000000000000 -6.9788641996388812 0.3535886396275363 0.3535533905932738 0.0000352490342625 
1.0000000000000000 0.3750000000000000 -0.0000000000000022 0.0000000000000001 0.0000000000000001 0.0000000000000000 
0.0000000000000000 0.5000000000000000 0.0000000000000000 0.0000000000000000 0.0000000000000000 0.0000000000000000 
0.1250000000000000 0.5000000000000000 -7.5538681765889439 0.3827215856448428 0.3826834323650898 0.0000381532797530 
0.2500000000000000 0.5000000000000000 -13.9577283992777570 0.7071772792550716 0.7071067811865475 0.0000704980685241 
0.3750000000000000 0.5000000000000000 -18.2366510002995490 0.9239716426767156 0.9238795325112867 0.0000921101654289 
0.5000000000000000 0.5000000000000000 -19.7392088021787160 1.0000996993246278 1.0000000000000000 0.0000996993246278 
0.6250000000000000 0.5000000000000000 -18.2366510002995490 0.9239716426767156 0.9238795325112867 0.0000921101654289 
0.7500000000000000 0.5000000000000000 -13.9577283992777588 0.7071772792550716 0.7071067811865476 0.0000704980685240 
0.8750000000000000 0.5000000000000000 -7.5538681765889457 0.3827215856448433 0.3826834323650899 0.0000381532797534 
1.0000000000000000 0.5000000000000000 -0.0000000000000024 0.0000000000000001 0.0000000000000001 0.0000000000000000 
0.0000000000000000 0.6250000000000000 0.0000000000000000 0.0000000000000000 0.0000000000000000 0.0000000000000000 
0.1250000000000000 0.6250000000000000 -6.9788641996388794 0.3535886396275358 0.3535533905932738 0.0000352490342620 
0.2500000000000000 0.6250000000000000 -12.8952595884442456 0.6533466141607791 0.6532814824381882 0.0000651317225909 
0.3750000000000000 0.6250000000000000 -16.8484686007282356 0.8536384892898498 0.8535533905932737 0.0000850986965760 
0.5000000000000000 0.6250000000000000 -18.2366510002995490 0.9239716426767156 0.9238795325112867 0.0000921101654289 
0.6250000000000000 0.6250000000000000 -16.8484686007282356 0.8536384892898498 0.8535533905932737 0.0000850986965760 
0.7500000000000000 0.6250000000000000 -12.8952595884442456 0.6533466141607791 0.6532814824381883 0.0000651317225908 
0.8750000000000000 0.6250000000000000 -6.9788641996388812 0.3535886396275363 0.3535533905932738 0.0000352490342625 
1.0000000000000000 0.6250000000000000 -0.0000000000000022 0.0000000000000001 0.0000000000000001 0.0000000000000000 
0.0000000000000000 0.7500000000000000 0.0000000000000000 0.0000000000000000 0.0000000000000000 0.0000000000000000 
0.1250000000000000 0.7500000000000000 -5.3413914118553034 0.2706250285159364 0.2705980500730985 0.0000269784428379 
0.2500000000000000 0.7500000000000000 -9.8696044010893580 0.5000498496623139 0.5000000000000000 0.0000498496623139 
0.3750000000000000 0.7500000000000000 -12.8952595884442474 0.6533466141607793 0.6532814824381883 0.0000651317225910 
0.5000000000000000 0.7500000000000000 -13.9577283992777588 0.7071772792550716 0.7071067811865476 0.0000704980685240 
0.6250000000000000 0.7500000000000000 -12.8952595884442474 0.6533466141607793 0.6532814824381883 0.0000651317225910 
0.7500000000000000 0.7500000000000000 -9.8696044010893598 0.5000498496623139 0.5000000000000001 0.0000498496623138 
0.8750000000000000 0.7500000000000000 -5.3413914118553043 0.2706250285159368 0.2705980500730986 0.0000269784428382 
1.0000000000000000 0.7500000000000000 -0.0000000000000017 0.0000000000000001 0.0000000000000001 0.0000000000000000 
0.0000000000000000 0.8750000000000000 0.0000000000000000 0.0000000000000000 0.0000000000000000 0.0000000000000000 
0.1250000000000000 0.8750000000000000 -2.8907402014504799 0.1464612100347783 0.1464466094067263 0.0000146006280520 
0.2500000000000000 0.8750000000000000 -5.3413914118553043 0.2706250285159368 0.2705980500730986 0.0000269784428382 
0.3750000000000000 0.8750000000000000 -6.9788641996388812 0.3535886396275363 0.3535533905932738 0.0000352490342625 
0.5000000000000000 0.8750000000000000 -7.5538681765889457 0.3827215856448433 0.3826834323650899 0.0000381532797534 
0.6250000000000000 0.8750000000000000 -6.9788641996388812 0.3535886396275363 0.3535533905932738 0.0000352490342625 
0.7500000000000000 0.8750000000000000 -5.3413914118553043 0.2706250285159368 0.2705980500730986 0.0000269784428382 
0.8750000000000000 0.8750000000000000 -2.8907402014504808 0.1464612100347785 0.1464466094067263 0.0000146006280522 
1.0000000000000000 0.8750000000000000 -0.0000000000000009 0.0000000000000000 0.0000000000000000 0.0000000000000000 
0.0000000000000000 1.0000000000000000 0.0000000000000000 0.0000000000000000 0.0000000000000000 0.0000000000000000 
0.1250000000000000 1.0000000000000000 -0.0000000000000009 0.0000000000000000 0.0000000000000000 0.0000000000000000 
0.2500000000000000 1.0000000000000000 -0.0000000000000017 0.0000000000000001 0.0000000000000001 0.0000000000000000 
0.3750000000000000 1.0000000000000000 -0.0000000000000022 0.0000000000000001 0.0000000000000001 0.0000000000000000 
0.5000000000000000 1.0000000000000000 -0.0000000000000024 0.0000000000000001 0.0000000000000001 0.0000000000000000 
0.6250000000000000 1.0000000000000000 -0.0000000000000022 0.0000000000000001 0.0000000000000001 0.0000000000000000 
0.7500000000000000 1.0000000000000000 -0.0000000000000017 0.0000000000000001 0.0000000000000001 0.0000000000000000 
0.8750000000000000 1.0000000000000000 -0.0000000000000009 0.0000000000000000 0.0000000000000000 0.0000000000000000 
1.0000000000000000 1.0000000000000000 -0.0000000000000000 0.0000000000000000 0.0000000000000000 0.0000000000000000 
