variables ="x","y","f","u","ue", "e" 
zone f=point i = 8,j = 8
0.0000000000000000 0.0000000000000000 0.0000000000000000 1.0000000000000000 1.0000000000000000 0.0000000000000000 
0.1250000000000000 0.0000000000000000 0.0156250000000000 1.0000000000000000 1.0000000000000000 0.0000000000000000 
0.2500000000000000 0.0000000000000000 0.0625000000000000 1.0000000000000000 1.0000000000000000 0.0000000000000000 
0.3750000000000000 0.0000000000000000 0.1406250000000000 1.0000000000000000 1.0000000000000000 0.0000000000000000 
0.5000000000000000 0.0000000000000000 0.2500000000000000 1.0000000000000000 1.0000000000000000 0.0000000000000000 
0.6250000000000000 0.0000000000000000 0.3906250000000000 1.0000000000000000 1.0000000000000000 0.0000000000000000 
0.7500000000000000 0.0000000000000000 0.5625000000000000 1.0000000000000000 1.0000000000000000 0.0000000000000000 
0.8750000000000000 0.0000000000000000 0.7656250000000000 1.0000000000000000 1.0000000000000000 0.0000000000000000 
1.0000000000000000 0.0000000000000000 1.0000000000000000 1.0000000000000000 1.0000000000000000 0.0000000000000000 
0.0000000000000000 0.1250000000000000 0.0156250000000000 1.0000000000000000 1.0000000000000000 0.0000000000000000 
0.1250000000000000 0.1250000000000000 0.0317421158933339 1.0157477075173931 1.0157477085866857 -0.0000000010692927 
0.2500000000000000 0.1250000000000000 0.0806049537108674 1.0317434053878634 1.0317434074991028 -0.0000000021112394 
0.3750000000000000 0.1250000000000000 0.1637485940650989 1.0479909988545271 1.0479910020166328 -0.0000000031621057 
0.5000000000000000 0.1250000000000000 0.2827563406500564 1.0644944546166317 1.0644944589178595 -0.0000000043012278 
0.6250000000000000 0.1250000000000000 0.4392609842761723 1.0812578018716750 1.0812578074490395 -0.0000000055773646 
0.7500000000000000 0.1250000000000000 0.6349460967404618 1.0982851335650421 1.0982851403078258 -0.0000000067427837 
0.8750000000000000 0.1250000000000000 0.8715473551894380 1.1155806081706345 1.1155806146424807 -0.0000000064718462 
1.0000000000000000 0.1250000000000000 1.1508538976459954 1.1331484530668263 1.1331484530668263 0.0000000000000000 
0.0000000000000000 0.2500000000000000 0.0625000000000000 1.0000000000000000 1.0000000000000000 0.0000000000000000 
0.1250000000000000 0.2500000000000000 0.0806049537108674 1.0317434053953716 1.0317434074991028 -0.0000000021037312 
0.2500000000000000 0.2500000000000000 0.1330618073647324 1.0644944547850854 1.0644944589178595 -0.0000000041327741 
0.3750000000000000 0.2500000000000000 0.2230891691250271 1.0982851341880446 1.0982851403078258 -0.0000000061197811 
0.5000000000000000 0.2500000000000000 0.3541088915833832 1.1331484449251741 1.1331484530668263 -0.0000000081416522 
0.6250000000000000 0.2500000000000000 0.5297567959205567 1.1691184360136553 1.1691184461695043 -0.0000000101558491 
0.7500000000000000 0.2500000000000000 0.7538939058881129 1.2062302378672078 1.2062302494209807 -0.0000000115537728 
0.8750000000000000 0.2500000000000000 1.0306182142437976 1.2445200976446016 1.2445201077660952 -0.0000000101214936 
1.0000000000000000 0.2500000000000000 1.3642770052307251 1.2840254166877414 1.2840254166877414 0.0000000000000000 
0.0000000000000000 0.3750000000000000 0.1406250000000000 1.0000000000000000 1.0000000000000000 0.0000000000000000 
0.1250000000000000 0.3750000000000000 0.1637485940650989 1.0479909988706457 1.0479910020166328 -0.0000000031459870 
0.2500000000000000 0.3750000000000000 0.2230891691250271 1.0982851342005966 1.0982851403078258 -0.0000000061072292 
0.3750000000000000 0.3750000000000000 0.3237167656943933 1.1509929357870596 1.1509929446911764 -0.0000000089041168 
0.5000000000000000 0.3750000000000000 0.4711836911800706 1.2062302378178740 1.2062302494209807 -0.0000000116031067 
0.6250000000000000 0.3750000000000000 0.6715629253690291 1.2641184336835505 1.2641184477534664 -0.0000000140699159 
0.7500000000000000 0.3750000000000000 0.9314892834812337 1.3247847433041393 1.3247847587288657 -0.0000000154247264 
0.8750000000000000 0.3750000000000000 1.2582035217481931 1.3883624938238268 1.3883625067566268 -0.0000000129327999 
1.0000000000000000 0.3750000000000000 1.6595995822988858 1.4549914146182013 1.4549914146182013 0.0000000000000000 
0.0000000000000000 0.5000000000000000 0.2500000000000000 1.0000000000000000 1.0000000000000000 0.0000000000000000 
0.1250000000000000 0.5000000000000000 0.2827563406500564 1.0644944546372397 1.0644944589178595 -0.0000000042806199 
0.2500000000000000 0.5000000000000000 0.3541088915833832 1.1331484449465759 1.1331484530668263 -0.0000000081202505 
0.3750000000000000 0.5000000000000000 0.4711836911800706 1.2062302378292413 1.2062302494209807 -0.0000000115917393 
0.5000000000000000 0.5000000000000000 0.6420127083438707 1.2840254018712371 1.2840254166877414 -0.0000000148165042 
0.6250000000000000 0.5000000000000000 0.8756305560644633 1.3668379235402608 1.3668379411737963 -0.0000000176335355 
0.7500000000000000 0.5000000000000000 1.1821805243772885 1.4549913956484819 1.4549914146182013 -0.0000000189697194 
0.8750000000000000 0.5000000000000000 1.5730307720502914 1.5488302830281051 1.5488302986341331 -0.0000000156060280 
1.0000000000000000 0.5000000000000000 2.0609015883751605 1.6487212707001282 1.6487212707001282 0.0000000000000000 
0.0000000000000000 0.6250000000000000 0.3906250000000000 1.0000000000000000 1.0000000000000000 0.0000000000000000 
0.1250000000000000 0.6250000000000000 0.4392609842761723 1.0812578018914063 1.0812578074490395 -0.0000000055576332 
0.2500000000000000 0.6250000000000000 0.5297567959205567 1.1691184360366689 1.1691184461695043 -0.0000000101328355 
0.3750000000000000 0.6250000000000000 0.6715629253690291 1.2641184336998776 1.2641184477534664 -0.0000000140535887 
0.5000000000000000 0.6250000000000000 0.8756305560644633 1.3668379235471870 1.3668379411737963 -0.0000000176266093 
0.6250000000000000 0.6250000000000000 1.1546126526654206 1.4779041746447894 1.4779041954117385 -0.0000000207669490 
0.7500000000000000 0.6250000000000000 1.5230894132341972 1.5979954276605959 1.5979954499506333 -0.0000000222900374 
0.8750000000000000 0.6250000000000000 1.9978208466095324 1.7278450381365591 1.7278450565271632 -0.0000000183906042 
1.0000000000000000 0.6250000000000000 2.5980295345541844 1.8682459574322223 1.8682459574322223 0.0000000000000000 
0.0000000000000000 0.7500000000000000 0.5625000000000000 1.0000000000000000 1.0000000000000000 0.0000000000000000 
0.1250000000000000 0.7500000000000000 0.6349460967404618 1.0982851335795440 1.0982851403078258 -0.0000000067282817 
0.2500000000000000 0.7500000000000000 0.7538939058881129 1.2062302378853040 1.2062302494209807 -0.0000000115356766 
0.3750000000000000 0.7500000000000000 0.9314892834812337 1.3247847433184818 1.3247847587288657 -0.0000000154103839 
0.5000000000000000 0.7500000000000000 1.1821805243772885 1.4549913956564877 1.4549914146182013 -0.0000000189617135 
0.6250000000000000 0.7500000000000000 1.5230894132341972 1.5979954276633590 1.5979954499506333 -0.0000000222872742 
0.7500000000000000 0.7500000000000000 1.9744364890803359 1.7550546326462466 1.7550546569602985 -0.0000000243140519 
0.8750000000000000 0.7500000000000000 2.5600279416287703 1.9275504294052543 1.9275504501675447 -0.0000000207622903 
1.0000000000000000 0.7500000000000000 3.3078125259573046 2.1170000166126748 2.1170000166126748 0.0000000000000000 
0.0000000000000000 0.8750000000000000 0.7656250000000000 1.0000000000000000 1.0000000000000000 0.0000000000000000 
0.1250000000000000 0.8750000000000000 0.8715473551894380 1.1155806081779200 1.1155806146424807 -0.0000000064645607 
0.2500000000000000 0.8750000000000000 1.0306182142437976 1.2445200976540811 1.2445201077660952 -0.0000000101120141 
0.3750000000000000 0.8750000000000000 1.2582035217481931 1.3883624938317678 1.3883625067566268 -0.0000000129248590 
0.5000000000000000 0.8750000000000000 1.5730307720502914 1.5488302830330392 1.5488302986341331 -0.0000000156010940 
0.6250000000000000 0.8750000000000000 1.9978208466095324 1.7278450381388142 1.7278450565271632 -0.0000000183883491 
0.7500000000000000 0.8750000000000000 2.5600279416287703 1.9275504294058909 1.9275504501675447 -0.0000000207616537 
0.8750000000000000 0.8750000000000000 3.2927049338019598 2.1503378965776809 2.1503379159523002 -0.0000000193746192 
1.0000000000000000 0.8750000000000000 4.2355141909106573 2.3988752939670981 2.3988752939670981 0.0000000000000000 
0.0000000000000000 1.0000000000000000 1.0000000000000000 1.0000000000000000 1.0000000000000000 0.0000000000000000 
0.1250000000000000 1.0000000000000000 1.1508538976459954 1.1331484530668263 1.1331484530668263 0.0000000000000000 
0.2500000000000000 1.0000000000000000 1.3642770052307251 1.2840254166877414 1.2840254166877414 0.0000000000000000 
0.3750000000000000 1.0000000000000000 1.6595995822988858 1.4549914146182013 1.4549914146182013 0.0000000000000000 
0.5000000000000000 1.0000000000000000 2.0609015883751605 1.6487212707001282 1.6487212707001282 0.0000000000000000 
0.6250000000000000 1.0000000000000000 2.5980295345541844 1.8682459574322223 1.8682459574322223 0.0000000000000000 
0.7500000000000000 1.0000000000000000 3.3078125259573046 2.1170000166126748 2.1170000166126748 0.0000000000000000 
0.8750000000000000 1.0000000000000000 4.2355141909106573 2.3988752939670981 2.3988752939670981 0.0000000000000000 
1.0000000000000000 1.0000000000000000 5.4365636569180902 2.7182818284590451 2.7182818284590451 0.0000000000000000 
