variables ="x","y","f","u","ue", "e" 
zone f=point i = 8,j = 8
0.0000000000000000 0.0000000000000000 0.0000000000000000 1.0000000000000000 1.0000000000000000 0.0000000000000000 
0.1250000000000000 0.0000000000000000 0.0156250000000000 1.0000000000000000 1.0000000000000000 0.0000000000000000 
0.2500000000000000 0.0000000000000000 0.0625000000000000 1.0000000000000000 1.0000000000000000 0.0000000000000000 
0.3750000000000000 0.0000000000000000 0.1406250000000000 1.0000000000000000 1.0000000000000000 0.0000000000000000 
0.5000000000000000 0.0000000000000000 0.2500000000000000 1.0000000000000000 1.0000000000000000 0.0000000000000000 
0.6250000000000000 0.0000000000000000 0.3906250000000000 1.0000000000000000 1.0000000000000000 0.0000000000000000 
0.7500000000000000 0.0000000000000000 0.5625000000000000 1.0000000000000000 1.0000000000000000 0.0000000000000000 
0.8750000000000000 0.0000000000000000 0.7656250000000000 1.0000000000000000 1.0000000000000000 0.0000000000000000 
1.0000000000000000 0.0000000000000000 1.0000000000000000 1.0000000000000000 1.0000000000000000 0.0000000000000000 
0.0000000000000000 0.1250000000000000 0.0156250000000000 1.0000000000000000 1.0000000000000000 0.0000000000000000 
0.1250000000000000 0.1250000000000000 0.0317421158933339 1.0157477074527319 1.0157477085866857 -0.0000000011339538 
0.2500000000000000 0.1250000000000000 0.0806049537108674 1.0317434052637733 1.0317434074991028 -0.0000000022353295 
0.3750000000000000 0.1250000000000000 0.1637485940650989 1.0479909986872051 1.0479910020166328 -0.0000000033294276 
0.5000000000000000 0.1250000000000000 0.2827563406500564 1.0644944544324104 1.0644944589178595 -0.0000000044854491 
0.6250000000000000 0.1250000000000000 0.4392609842761723 1.0812578017017067 1.0812578074490395 -0.0000000057473328 
0.7500000000000000 0.1250000000000000 0.6349460967404618 1.0982851334375119 1.0982851403078258 -0.0000000068703139 
0.8750000000000000 0.1250000000000000 0.8715473551894380 1.1155806081042487 1.1155806146424807 -0.0000000065382320 
1.0000000000000000 0.1250000000000000 1.1508538976459954 1.1331484530668263 1.1331484530668263 0.0000000000000000 
0.0000000000000000 0.2500000000000000 0.0625000000000000 1.0000000000000000 1.0000000000000000 0.0000000000000000 
0.1250000000000000 0.2500000000000000 0.0806049537108674 1.0317434052704912 1.0317434074991028 -0.0000000022286115 
0.2500000000000000 0.2500000000000000 0.1330618073647324 1.0644944545531159 1.0644944589178595 -0.0000000043647437 
0.3750000000000000 0.2500000000000000 0.2230891691250271 1.0982851338837425 1.0982851403078258 -0.0000000064240833 
0.5000000000000000 0.2500000000000000 0.3541088915833832 1.1331484445972126 1.1331484530668263 -0.0000000084696137 
0.6250000000000000 0.2500000000000000 0.5297567959205567 1.1691184357156950 1.1691184461695043 -0.0000000104538094 
0.7500000000000000 0.2500000000000000 0.7538939058881129 1.2062302376462191 1.2062302494209807 -0.0000000117747616 
0.8750000000000000 0.2500000000000000 1.0306182142437976 1.2445200975303723 1.2445201077660952 -0.0000000102357229 
1.0000000000000000 0.2500000000000000 1.3642770052307251 1.2840254166877414 1.2840254166877414 0.0000000000000000 
0.0000000000000000 0.3750000000000000 0.1406250000000000 1.0000000000000000 1.0000000000000000 0.0000000000000000 
0.1250000000000000 0.3750000000000000 0.1637485940650989 1.0479909987034266 1.0479910020166328 -0.0000000033132062 
0.2500000000000000 0.3750000000000000 0.2230891691250271 1.0982851338975883 1.0982851403078258 -0.0000000064102375 
0.3750000000000000 0.3750000000000000 0.3237167656943933 1.1509929353980410 1.1509929446911764 -0.0000000092931354 
0.5000000000000000 0.3750000000000000 0.4711836911800706 1.2062302374058647 1.2062302494209807 -0.0000000120151160 
0.6250000000000000 0.3750000000000000 0.6715629253690291 1.2641184333142270 1.2641184477534664 -0.0000000144392394 
0.7500000000000000 0.3750000000000000 0.9314892834812337 1.3247847430327808 1.3247847587288657 -0.0000000156960849 
0.8750000000000000 0.3750000000000000 1.2582035217481931 1.3883624936844035 1.3883625067566268 -0.0000000130722233 
1.0000000000000000 0.3750000000000000 1.6595995822988858 1.4549914146182013 1.4549914146182013 0.0000000000000000 
0.0000000000000000 0.5000000000000000 0.2500000000000000 1.0000000000000000 1.0000000000000000 0.0000000000000000 
0.1250000000000000 0.5000000000000000 0.2827563406500564 1.0644944544567492 1.0644944589178595 -0.0000000044611104 
0.2500000000000000 0.5000000000000000 0.3541088915833832 1.1331484446249085 1.1331484530668263 -0.0000000084419178 
0.3750000000000000 0.5000000000000000 0.4711836911800706 1.2062302374225802 1.2062302494209807 -0.0000000119984005 
0.5000000000000000 0.5000000000000000 0.6420127083438707 1.2840254014461263 1.2840254166877414 -0.0000000152416151 
0.6250000000000000 0.5000000000000000 0.8756305560644633 1.3668379231630794 1.3668379411737963 -0.0000000180107169 
0.7500000000000000 0.5000000000000000 1.1821805243772885 1.4549913953734355 1.4549914146182013 -0.0000000192447658 
0.8750000000000000 0.5000000000000000 1.5730307720502914 1.5488302828875089 1.5488302986341331 -0.0000000157466242 
1.0000000000000000 0.5000000000000000 2.0609015883751605 1.6487212707001282 1.6487212707001282 0.0000000000000000 
0.0000000000000000 0.6250000000000000 0.3906250000000000 1.0000000000000000 1.0000000000000000 0.0000000000000000 
0.1250000000000000 0.6250000000000000 0.4392609842761723 1.0812578017294148 1.0812578074490395 -0.0000000057196248 
0.2500000000000000 0.6250000000000000 0.5297567959205567 1.1691184357511641 1.1691184461695043 -0.0000000104183402 
0.3750000000000000 0.6250000000000000 0.6715629253690291 1.2641184333427671 1.2641184477534664 -0.0000000144106993 
0.5000000000000000 0.6250000000000000 0.8756305560644633 1.3668379231773489 1.3668379411737963 -0.0000000179964474 
0.6250000000000000 0.6250000000000000 1.1546126526654206 1.4779041743191406 1.4779041954117385 -0.0000000210925979 
0.7500000000000000 0.6250000000000000 1.5230894132341972 1.5979954274244934 1.5979954499506333 -0.0000000225261398 
0.8750000000000000 0.6250000000000000 1.9978208466095324 1.7278450380163433 1.7278450565271632 -0.0000000185108200 
1.0000000000000000 0.6250000000000000 2.5980295345541844 1.8682459574322223 1.8682459574322223 0.0000000000000000 
0.0000000000000000 0.7500000000000000 0.5625000000000000 1.0000000000000000 1.0000000000000000 0.0000000000000000 
0.1250000000000000 0.7500000000000000 0.6349460967404618 1.0982851334620123 1.0982851403078258 -0.0000000068458135 
0.2500000000000000 0.7500000000000000 0.7538939058881129 1.2062302376796705 1.2062302494209807 -0.0000000117413101 
0.3750000000000000 0.7500000000000000 0.9314892834812337 1.3247847430630599 1.3247847587288657 -0.0000000156658058 
0.5000000000000000 0.7500000000000000 1.1821805243772885 1.4549913953936191 1.4549914146182013 -0.0000000192245821 
0.6250000000000000 0.7500000000000000 1.5230894132341972 1.5979954274331070 1.5979954499506333 -0.0000000225175263 
0.7500000000000000 0.7500000000000000 1.9744364890803359 1.7550546324799599 1.7550546569602985 -0.0000000244803386 
0.8750000000000000 0.7500000000000000 2.5600279416287703 1.9275504293208023 1.9275504501675447 -0.0000000208467423 
1.0000000000000000 0.7500000000000000 3.3078125259573046 2.1170000166126748 2.1170000166126748 0.0000000000000000 
0.0000000000000000 0.8750000000000000 0.7656250000000000 1.0000000000000000 1.0000000000000000 0.0000000000000000 
0.1250000000000000 0.8750000000000000 0.8715473551894380 1.1155806081189561 1.1155806146424807 -0.0000000065235246 
0.2500000000000000 0.8750000000000000 1.0306182142437976 1.2445200975512876 1.2445201077660952 -0.0000000102148077 
0.3750000000000000 0.8750000000000000 1.2582035217481931 1.3883624937045960 1.3883625067566268 -0.0000000130520308 
0.5000000000000000 0.8750000000000000 1.5730307720502914 1.5488302829026503 1.5488302986341331 -0.0000000157314828 
0.6250000000000000 0.8750000000000000 1.9978208466095324 1.7278450380249586 1.7278450565271632 -0.0000000185022047 
0.7500000000000000 0.8750000000000000 2.5600279416287703 1.9275504293238483 1.9275504501675447 -0.0000000208436963 
0.8750000000000000 0.8750000000000000 3.2927049338019598 2.1503378965360671 2.1503379159523002 -0.0000000194162331 
1.0000000000000000 0.8750000000000000 4.2355141909106573 2.3988752939670981 2.3988752939670981 0.0000000000000000 
0.0000000000000000 1.0000000000000000 1.0000000000000000 1.0000000000000000 1.0000000000000000 0.0000000000000000 
0.1250000000000000 1.0000000000000000 1.1508538976459954 1.1331484530668263 1.1331484530668263 0.0000000000000000 
0.2500000000000000 1.0000000000000000 1.3642770052307251 1.2840254166877414 1.2840254166877414 0.0000000000000000 
0.3750000000000000 1.0000000000000000 1.6595995822988858 1.4549914146182013 1.4549914146182013 0.0000000000000000 
0.5000000000000000 1.0000000000000000 2.0609015883751605 1.6487212707001282 1.6487212707001282 0.0000000000000000 
0.6250000000000000 1.0000000000000000 2.5980295345541844 1.8682459574322223 1.8682459574322223 0.0000000000000000 
0.7500000000000000 1.0000000000000000 3.3078125259573046 2.1170000166126748 2.1170000166126748 0.0000000000000000 
0.8750000000000000 1.0000000000000000 4.2355141909106573 2.3988752939670981 2.3988752939670981 0.0000000000000000 
1.0000000000000000 1.0000000000000000 5.4365636569180902 2.7182818284590451 2.7182818284590451 0.0000000000000000 
