variables ="x","y","f","u","ue" 
zone f=point i = 128,j = 128
0.0000000000000000 0.0000000000000000 0.0000000000000000 1.0000000000000000 1.0000000000000000 
0.0078125000000000 0.0000000000000000 0.0000610351562500 1.0000000000000000 1.0000000000000000 
0.0156250000000000 0.0000000000000000 0.0002441406250000 1.0000000000000000 1.0000000000000000 
0.0234375000000000 0.0000000000000000 0.0005493164062500 1.0000000000000000 1.0000000000000000 
0.0312500000000000 0.0000000000000000 0.0009765625000000 1.0000000000000000 1.0000000000000000 
0.0390625000000000 0.0000000000000000 0.0015258789062500 1.0000000000000000 1.0000000000000000 
0.0468750000000000 0.0000000000000000 0.0021972656250000 1.0000000000000000 1.0000000000000000 
0.0546875000000000 0.0000000000000000 0.0029907226562500 1.0000000000000000 1.0000000000000000 
0.0625000000000000 0.0000000000000000 0.0039062500000000 1.0000000000000000 1.0000000000000000 
0.0703125000000000 0.0000000000000000 0.0049438476562500 1.0000000000000000 1.0000000000000000 
0.0781250000000000 0.0000000000000000 0.0061035156250000 1.0000000000000000 1.0000000000000000 
0.0859375000000000 0.0000000000000000 0.0073852539062500 1.0000000000000000 1.0000000000000000 
0.0937500000000000 0.0000000000000000 0.0087890625000000 1.0000000000000000 1.0000000000000000 
0.1015625000000000 0.0000000000000000 0.0103149414062500 1.0000000000000000 1.0000000000000000 
0.1093750000000000 0.0000000000000000 0.0119628906250000 1.0000000000000000 1.0000000000000000 
0.1171875000000000 0.0000000000000000 0.0137329101562500 1.0000000000000000 1.0000000000000000 
0.1250000000000000 0.0000000000000000 0.0156250000000000 1.0000000000000000 1.0000000000000000 
0.1328125000000000 0.0000000000000000 0.0176391601562500 1.0000000000000000 1.0000000000000000 
0.1406250000000000 0.0000000000000000 0.0197753906250000 1.0000000000000000 1.0000000000000000 
0.1484375000000000 0.0000000000000000 0.0220336914062500 1.0000000000000000 1.0000000000000000 
0.1562500000000000 0.0000000000000000 0.0244140625000000 1.0000000000000000 1.0000000000000000 
0.1640625000000000 0.0000000000000000 0.0269165039062500 1.0000000000000000 1.0000000000000000 
0.1718750000000000 0.0000000000000000 0.0295410156250000 1.0000000000000000 1.0000000000000000 
0.1796875000000000 0.0000000000000000 0.0322875976562500 1.0000000000000000 1.0000000000000000 
0.1875000000000000 0.0000000000000000 0.0351562500000000 1.0000000000000000 1.0000000000000000 
0.1953125000000000 0.0000000000000000 0.0381469726562500 1.0000000000000000 1.0000000000000000 
0.2031250000000000 0.0000000000000000 0.0412597656250000 1.0000000000000000 1.0000000000000000 
0.2109375000000000 0.0000000000000000 0.0444946289062500 1.0000000000000000 1.0000000000000000 
0.2187500000000000 0.0000000000000000 0.0478515625000000 1.0000000000000000 1.0000000000000000 
0.2265625000000000 0.0000000000000000 0.0513305664062500 1.0000000000000000 1.0000000000000000 
0.2343750000000000 0.0000000000000000 0.0549316406250000 1.0000000000000000 1.0000000000000000 
0.2421875000000000 0.0000000000000000 0.0586547851562500 1.0000000000000000 1.0000000000000000 
0.2500000000000000 0.0000000000000000 0.0625000000000000 1.0000000000000000 1.0000000000000000 
0.2578125000000000 0.0000000000000000 0.0664672851562500 1.0000000000000000 1.0000000000000000 
0.2656250000000000 0.0000000000000000 0.0705566406250000 1.0000000000000000 1.0000000000000000 
0.2734375000000000 0.0000000000000000 0.0747680664062500 1.0000000000000000 1.0000000000000000 
0.2812500000000000 0.0000000000000000 0.0791015625000000 1.0000000000000000 1.0000000000000000 
0.2890625000000000 0.0000000000000000 0.0835571289062500 1.0000000000000000 1.0000000000000000 
0.2968750000000000 0.0000000000000000 0.0881347656250000 1.0000000000000000 1.0000000000000000 
0.3046875000000000 0.0000000000000000 0.0928344726562500 1.0000000000000000 1.0000000000000000 
0.3125000000000000 0.0000000000000000 0.0976562500000000 1.0000000000000000 1.0000000000000000 
0.3203125000000000 0.0000000000000000 0.1026000976562500 1.0000000000000000 1.0000000000000000 
0.3281250000000000 0.0000000000000000 0.1076660156250000 1.0000000000000000 1.0000000000000000 
0.3359375000000000 0.0000000000000000 0.1128540039062500 1.0000000000000000 1.0000000000000000 
0.3437500000000000 0.0000000000000000 0.1181640625000000 1.0000000000000000 1.0000000000000000 
0.3515625000000000 0.0000000000000000 0.1235961914062500 1.0000000000000000 1.0000000000000000 
0.3593750000000000 0.0000000000000000 0.1291503906250000 1.0000000000000000 1.0000000000000000 
0.3671875000000000 0.0000000000000000 0.1348266601562500 1.0000000000000000 1.0000000000000000 
0.3750000000000000 0.0000000000000000 0.1406250000000000 1.0000000000000000 1.0000000000000000 
0.3828125000000000 0.0000000000000000 0.1465454101562500 1.0000000000000000 1.0000000000000000 
0.3906250000000000 0.0000000000000000 0.1525878906250000 1.0000000000000000 1.0000000000000000 
0.3984375000000000 0.0000000000000000 0.1587524414062500 1.0000000000000000 1.0000000000000000 
0.4062500000000000 0.0000000000000000 0.1650390625000000 1.0000000000000000 1.0000000000000000 
0.4140625000000000 0.0000000000000000 0.1714477539062500 1.0000000000000000 1.0000000000000000 
0.4218750000000000 0.0000000000000000 0.1779785156250000 1.0000000000000000 1.0000000000000000 
0.4296875000000000 0.0000000000000000 0.1846313476562500 1.0000000000000000 1.0000000000000000 
0.4375000000000000 0.0000000000000000 0.1914062500000000 1.0000000000000000 1.0000000000000000 
0.4453125000000000 0.0000000000000000 0.1983032226562500 1.0000000000000000 1.0000000000000000 
0.4531250000000000 0.0000000000000000 0.2053222656250000 1.0000000000000000 1.0000000000000000 
0.4609375000000000 0.0000000000000000 0.2124633789062500 1.0000000000000000 1.0000000000000000 
0.4687500000000000 0.0000000000000000 0.2197265625000000 1.0000000000000000 1.0000000000000000 
0.4765625000000000 0.0000000000000000 0.2271118164062500 1.0000000000000000 1.0000000000000000 
0.4843750000000000 0.0000000000000000 0.2346191406250000 1.0000000000000000 1.0000000000000000 
0.4921875000000000 0.0000000000000000 0.2422485351562500 1.0000000000000000 1.0000000000000000 
0.5000000000000000 0.0000000000000000 0.2500000000000000 1.0000000000000000 1.0000000000000000 
0.5078125000000000 0.0000000000000000 0.2578735351562500 1.0000000000000000 1.0000000000000000 
0.5156250000000000 0.0000000000000000 0.2658691406250000 1.0000000000000000 1.0000000000000000 
0.5234375000000000 0.0000000000000000 0.2739868164062500 1.0000000000000000 1.0000000000000000 
0.5312500000000000 0.0000000000000000 0.2822265625000000 1.0000000000000000 1.0000000000000000 
0.5390625000000000 0.0000000000000000 0.2905883789062500 1.0000000000000000 1.0000000000000000 
0.5468750000000000 0.0000000000000000 0.2990722656250000 1.0000000000000000 1.0000000000000000 
0.5546875000000000 0.0000000000000000 0.3076782226562500 1.0000000000000000 1.0000000000000000 
0.5625000000000000 0.0000000000000000 0.3164062500000000 1.0000000000000000 1.0000000000000000 
0.5703125000000000 0.0000000000000000 0.3252563476562500 1.0000000000000000 1.0000000000000000 
0.5781250000000000 0.0000000000000000 0.3342285156250000 1.0000000000000000 1.0000000000000000 
0.5859375000000000 0.0000000000000000 0.3433227539062500 1.0000000000000000 1.0000000000000000 
0.5937500000000000 0.0000000000000000 0.3525390625000000 1.0000000000000000 1.0000000000000000 
0.6015625000000000 0.0000000000000000 0.3618774414062500 1.0000000000000000 1.0000000000000000 
0.6093750000000000 0.0000000000000000 0.3713378906250000 1.0000000000000000 1.0000000000000000 
0.6171875000000000 0.0000000000000000 0.3809204101562500 1.0000000000000000 1.0000000000000000 
0.6250000000000000 0.0000000000000000 0.3906250000000000 1.0000000000000000 1.0000000000000000 
0.6328125000000000 0.0000000000000000 0.4004516601562500 1.0000000000000000 1.0000000000000000 
0.6406250000000000 0.0000000000000000 0.4104003906250000 1.0000000000000000 1.0000000000000000 
0.6484375000000000 0.0000000000000000 0.4204711914062500 1.0000000000000000 1.0000000000000000 
0.6562500000000000 0.0000000000000000 0.4306640625000000 1.0000000000000000 1.0000000000000000 
0.6640625000000000 0.0000000000000000 0.4409790039062500 1.0000000000000000 1.0000000000000000 
0.6718750000000000 0.0000000000000000 0.4514160156250000 1.0000000000000000 1.0000000000000000 
0.6796875000000000 0.0000000000000000 0.4619750976562500 1.0000000000000000 1.0000000000000000 
0.6875000000000000 0.0000000000000000 0.4726562500000000 1.0000000000000000 1.0000000000000000 
0.6953125000000000 0.0000000000000000 0.4834594726562500 1.0000000000000000 1.0000000000000000 
0.7031250000000000 0.0000000000000000 0.4943847656250000 1.0000000000000000 1.0000000000000000 
0.7109375000000000 0.0000000000000000 0.5054321289062500 1.0000000000000000 1.0000000000000000 
0.7187500000000000 0.0000000000000000 0.5166015625000000 1.0000000000000000 1.0000000000000000 
0.7265625000000000 0.0000000000000000 0.5278930664062500 1.0000000000000000 1.0000000000000000 
0.7343750000000000 0.0000000000000000 0.5393066406250000 1.0000000000000000 1.0000000000000000 
0.7421875000000000 0.0000000000000000 0.5508422851562500 1.0000000000000000 1.0000000000000000 
0.7500000000000000 0.0000000000000000 0.5625000000000000 1.0000000000000000 1.0000000000000000 
0.7578125000000000 0.0000000000000000 0.5742797851562500 1.0000000000000000 1.0000000000000000 
0.7656250000000000 0.0000000000000000 0.5861816406250000 1.0000000000000000 1.0000000000000000 
0.7734375000000000 0.0000000000000000 0.5982055664062500 1.0000000000000000 1.0000000000000000 
0.7812500000000000 0.0000000000000000 0.6103515625000000 1.0000000000000000 1.0000000000000000 
0.7890625000000000 0.0000000000000000 0.6226196289062500 1.0000000000000000 1.0000000000000000 
0.7968750000000000 0.0000000000000000 0.6350097656250000 1.0000000000000000 1.0000000000000000 
0.8046875000000000 0.0000000000000000 0.6475219726562500 1.0000000000000000 1.0000000000000000 
0.8125000000000000 0.0000000000000000 0.6601562500000000 1.0000000000000000 1.0000000000000000 
0.8203125000000000 0.0000000000000000 0.6729125976562500 1.0000000000000000 1.0000000000000000 
0.8281250000000000 0.0000000000000000 0.6857910156250000 1.0000000000000000 1.0000000000000000 
0.8359375000000000 0.0000000000000000 0.6987915039062500 1.0000000000000000 1.0000000000000000 
0.8437500000000000 0.0000000000000000 0.7119140625000000 1.0000000000000000 1.0000000000000000 
0.8515625000000000 0.0000000000000000 0.7251586914062500 1.0000000000000000 1.0000000000000000 
0.8593750000000000 0.0000000000000000 0.7385253906250000 1.0000000000000000 1.0000000000000000 
0.8671875000000000 0.0000000000000000 0.7520141601562500 1.0000000000000000 1.0000000000000000 
0.8750000000000000 0.0000000000000000 0.7656250000000000 1.0000000000000000 1.0000000000000000 
0.8828125000000000 0.0000000000000000 0.7793579101562500 1.0000000000000000 1.0000000000000000 
0.8906250000000000 0.0000000000000000 0.7932128906250000 1.0000000000000000 1.0000000000000000 
0.8984375000000000 0.0000000000000000 0.8071899414062500 1.0000000000000000 1.0000000000000000 
0.9062500000000000 0.0000000000000000 0.8212890625000000 1.0000000000000000 1.0000000000000000 
0.9140625000000000 0.0000000000000000 0.8355102539062500 1.0000000000000000 1.0000000000000000 
0.9218750000000000 0.0000000000000000 0.8498535156250000 1.0000000000000000 1.0000000000000000 
0.9296875000000000 0.0000000000000000 0.8643188476562500 1.0000000000000000 1.0000000000000000 
0.9375000000000000 0.0000000000000000 0.8789062500000000 1.0000000000000000 1.0000000000000000 
0.9453125000000000 0.0000000000000000 0.8936157226562500 1.0000000000000000 1.0000000000000000 
0.9531250000000000 0.0000000000000000 0.9084472656250000 1.0000000000000000 1.0000000000000000 
0.9609375000000000 0.0000000000000000 0.9234008789062500 1.0000000000000000 1.0000000000000000 
0.9687500000000000 0.0000000000000000 0.9384765625000000 1.0000000000000000 1.0000000000000000 
0.9765625000000000 0.0000000000000000 0.9536743164062500 1.0000000000000000 1.0000000000000000 
0.9843750000000000 0.0000000000000000 0.9689941406250000 1.0000000000000000 1.0000000000000000 
0.9921875000000000 0.0000000000000000 0.9844360351562500 1.0000000000000000 1.0000000000000000 
1.0000000000000000 0.0000000000000000 1.0000000000000000 1.0000000000000000 1.0000000000000000 
0.0000000000000000 0.0078125000000000 0.0000610351562500 1.0000000000000000 1.0000000000000000 
0.0078125000000000 0.0078125000000000 0.0001220777633080 0.0000000000000000 1.0000610370189331 
0.0156250000000000 0.0078125000000000 0.0003052130364268 0.0000000000000000 1.0001220777633837 
0.0234375000000000 0.0078125000000000 0.0006104633314414 0.0000000000000000 1.0001831222335795 
0.0312500000000000 0.0078125000000000 0.0010378510069156 0.0000000000000000 1.0002441704297478 
0.0390625000000000 0.0078125000000000 0.0015873984241428 0.0000000000000000 1.0003052223521161 
0.0468750000000000 0.0078125000000000 0.0022591279471456 0.0000000000000000 1.0003662780009115 
0.0546875000000000 0.0078125000000000 0.0030530619426769 0.0000000000000000 1.0004273373763619 
0.0625000000000000 0.0078125000000000 0.0039692227802194 0.0000000000000000 1.0004884004786945 
0.0703125000000000 0.0078125000000000 0.0050076328319865 0.0000000000000000 1.0005494673081368 
0.0781250000000000 0.0078125000000000 0.0061683144729222 0.0000000000000000 1.0006105378649164 
0.0859375000000000 0.0078125000000000 0.0074512900807013 0.0000000000000000 1.0006716121492605 
0.0937500000000000 0.0078125000000000 0.0088565820357301 0.0000000000000000 1.0007326901613971 
0.1015625000000000 0.0078125000000000 0.0103842127211465 0.0000000000000000 1.0007937719015534 
0.1093750000000000 0.0078125000000000 0.0120342045228199 0.0000000000000000 1.0008548573699569 
0.1171875000000000 0.0078125000000000 0.0138065798293521 0.0000000000000000 1.0009159465668356 
0.1250000000000000 0.0078125000000000 0.0157013610320771 0.0000000000000000 1.0009770394924165 
0.1328125000000000 0.0078125000000000 0.0177185705250616 0.0000000000000000 1.0010381361469276 
0.1406250000000000 0.0078125000000000 0.0198582307051052 0.0000000000000000 1.0010992365305962 
0.1484375000000000 0.0078125000000000 0.0221203639717408 0.0000000000000000 1.0011603406436502 
0.1562500000000000 0.0078125000000000 0.0245049927272347 0.0000000000000000 1.0012214484863171 
0.1640625000000000 0.0078125000000000 0.0270121393765869 0.0000000000000000 1.0012825600588247 
0.1718750000000000 0.0078125000000000 0.0296418263275317 0.0000000000000000 1.0013436753614002 
0.1796875000000000 0.0078125000000000 0.0323940759905374 0.0000000000000000 1.0014047943942717 
0.1875000000000000 0.0078125000000000 0.0352689107788070 0.0000000000000000 1.0014659171576668 
0.1953125000000000 0.0078125000000000 0.0382663531082785 0.0000000000000000 1.0015270436518131 
0.2031250000000000 0.0078125000000000 0.0413864253976250 0.0000000000000000 1.0015881738769385 
0.2109375000000000 0.0078125000000000 0.0446291500682548 0.0000000000000000 1.0016493078332704 
0.2187500000000000 0.0078125000000000 0.0479945495443124 0.0000000000000000 1.0017104455210371 
0.2265625000000000 0.0078125000000000 0.0514826462526777 0.0000000000000000 1.0017715869404658 
0.2343750000000000 0.0078125000000000 0.0550934626229674 0.0000000000000000 1.0018327320917844 
0.2421875000000000 0.0078125000000000 0.0588270210875343 0.0000000000000000 1.0018938809752209 
0.2500000000000000 0.0078125000000000 0.0626833440814684 0.0000000000000000 1.0019550335910028 
0.2578125000000000 0.0078125000000000 0.0666624540425965 0.0000000000000000 1.0020161899393583 
0.2656250000000000 0.0078125000000000 0.0707643734114829 0.0000000000000000 1.0020773500205147 
0.2734375000000000 0.0078125000000000 0.0749891246314296 0.0000000000000000 1.0021385138347003 
0.2812500000000000 0.0078125000000000 0.0793367301484765 0.0000000000000000 1.0021996813821428 
0.2890625000000000 0.0078125000000000 0.0838072124114017 0.0000000000000000 1.0022608526630701 
0.2968750000000000 0.0078125000000000 0.0884005938717218 0.0000000000000000 1.0023220276777098 
0.3046875000000000 0.0078125000000000 0.0931168969836922 0.0000000000000000 1.0023832064262901 
0.3125000000000000 0.0078125000000000 0.0979561442043073 0.0000000000000000 1.0024443889090391 
0.3203125000000000 0.0078125000000000 0.1029183579933009 0.0000000000000000 1.0025055751261842 
0.3281250000000000 0.0078125000000000 0.1080035608131463 0.0000000000000000 1.0025667650779537 
0.3359375000000000 0.0078125000000000 0.1132117751290567 0.0000000000000000 1.0026279587645752 
0.3437500000000000 0.0078125000000000 0.1185430234089855 0.0000000000000000 1.0026891561862772 
0.3515625000000000 0.0078125000000000 0.1239973281236267 0.0000000000000000 1.0027503573432874 
0.3593750000000000 0.0078125000000000 0.1295747117464148 0.0000000000000000 1.0028115622358336 
0.3671875000000000 0.0078125000000000 0.1352751967535253 0.0000000000000000 1.0028727708641441 
0.3750000000000000 0.0078125000000000 0.1410988056238751 0.0000000000000000 1.0029339832284467 
0.3828125000000000 0.0078125000000000 0.1470455608391226 0.0000000000000000 1.0029951993289696 
0.3906250000000000 0.0078125000000000 0.1531154848836681 0.0000000000000000 1.0030564191659408 
0.3984375000000000 0.0078125000000000 0.1593086002446539 0.0000000000000000 1.0031176427395885 
0.4062500000000000 0.0078125000000000 0.1656249294119647 0.0000000000000000 1.0031788700501403 
0.4140625000000000 0.0078125000000000 0.1720644948782280 0.0000000000000000 1.0032401010978249 
0.4218750000000000 0.0078125000000000 0.1786273191388142 0.0000000000000000 1.0033013358828700 
0.4296875000000000 0.0078125000000000 0.1853134246918368 0.0000000000000000 1.0033625744055037 
0.4375000000000000 0.0078125000000000 0.1921228340381531 0.0000000000000000 1.0034238166659546 
0.4453125000000000 0.0078125000000000 0.1990555696813637 0.0000000000000000 1.0034850626644503 
0.4531250000000000 0.0078125000000000 0.2061116541278139 0.0000000000000000 1.0035463124012192 
0.4609375000000000 0.0078125000000000 0.2132911098865928 0.0000000000000000 1.0036075658764894 
0.4687500000000000 0.0078125000000000 0.2205939594695344 0.0000000000000000 1.0036688230904891 
0.4765625000000000 0.0078125000000000 0.2280202253912175 0.0000000000000000 1.0037300840434464 
0.4843750000000000 0.0078125000000000 0.2355699301689663 0.0000000000000000 1.0037913487355901 
0.4921875000000000 0.0078125000000000 0.2432430963228501 0.0000000000000000 1.0038526171671476 
0.5000000000000000 0.0078125000000000 0.2510397463756842 0.0000000000000000 1.0039138893383475 
0.5078125000000000 0.0078125000000000 0.2589599028530299 0.0000000000000000 1.0039751652494182 
0.5156250000000000 0.0078125000000000 0.2670035882831946 0.0000000000000000 1.0040364449005879 
0.5234375000000000 0.0078125000000000 0.2751708251972327 0.0000000000000000 1.0040977282920847 
0.5312500000000000 0.0078125000000000 0.2834616361289449 0.0000000000000000 1.0041590154241371 
0.5390625000000000 0.0078125000000000 0.2918760436148796 0.0000000000000000 1.0042203062969735 
0.5468750000000000 0.0078125000000000 0.3004140701943321 0.0000000000000000 1.0042816009108217 
0.5546875000000000 0.0078125000000000 0.3090757384093458 0.0000000000000000 1.0043428992659107 
0.5625000000000000 0.0078125000000000 0.3178610708047119 0.0000000000000000 1.0044042013624686 
0.5703125000000000 0.0078125000000000 0.3267700899279697 0.0000000000000000 1.0044655072007234 
0.5781250000000000 0.0078125000000000 0.3358028183294074 0.0000000000000000 1.0045268167809041 
0.5859375000000000 0.0078125000000000 0.3449592785620618 0.0000000000000000 1.0045881301032387 
0.5937500000000000 0.0078125000000000 0.3542394931817188 0.0000000000000000 1.0046494471679557 
0.6015625000000000 0.0078125000000000 0.3636434847469135 0.0000000000000000 1.0047107679752836 
0.6093750000000000 0.0078125000000000 0.3731712758189311 0.0000000000000000 1.0047720925254506 
0.6171875000000000 0.0078125000000000 0.3828228889618063 0.0000000000000000 1.0048334208186855 
0.6250000000000000 0.0078125000000000 0.3925983467423243 0.0000000000000000 1.0048947528552166 
0.6328125000000000 0.0078125000000000 0.4024976717300206 0.0000000000000000 1.0049560886352724 
0.6406250000000000 0.0078125000000000 0.4125208864971815 0.0000000000000000 1.0050174281590813 
0.6484375000000000 0.0078125000000000 0.4226680136188444 0.0000000000000000 1.0050787714268719 
0.6562500000000000 0.0078125000000000 0.4329390756727981 0.0000000000000000 1.0051401184388726 
0.6640625000000000 0.0078125000000000 0.4433340952395829 0.0000000000000000 1.0052014691953122 
0.6718750000000000 0.0078125000000000 0.4538530949024909 0.0000000000000000 1.0052628236964190 
0.6796875000000000 0.0078125000000000 0.4644960972475666 0.0000000000000000 1.0053241819424217 
0.6875000000000000 0.0078125000000000 0.4752631248636068 0.0000000000000000 1.0053855439335486 
0.6953125000000000 0.0078125000000000 0.4861542003421611 0.0000000000000000 1.0054469096700287 
0.7031250000000000 0.0078125000000000 0.4971693462775320 0.0000000000000000 1.0055082791520904 
0.7109375000000000 0.0078125000000000 0.5083085852667755 0.0000000000000000 1.0055696523799624 
0.7187500000000000 0.0078125000000000 0.5195719399097007 0.0000000000000000 1.0056310293538733 
0.7265625000000000 0.0078125000000000 0.5309594328088713 0.0000000000000000 1.0056924100740516 
0.7343750000000000 0.0078125000000000 0.5424710865696042 0.0000000000000000 1.0057537945407260 
0.7421875000000000 0.0078125000000000 0.5541069237999717 0.0000000000000000 1.0058151827541255 
0.7500000000000000 0.0078125000000000 0.5658669671107999 0.0000000000000000 1.0058765747144782 
0.7578125000000000 0.0078125000000000 0.5777512391156706 0.0000000000000000 1.0059379704220135 
0.7656250000000000 0.0078125000000000 0.5897597624309202 0.0000000000000000 1.0059993698769596 
0.7734375000000000 0.0078125000000000 0.6018925596756411 0.0000000000000000 1.0060607730795454 
0.7812500000000000 0.0078125000000000 0.6141496534716814 0.0000000000000000 1.0061221800299998 
0.7890625000000000 0.0078125000000000 0.6265310664436449 0.0000000000000000 1.0061835907285510 
0.7968750000000000 0.0078125000000000 0.6390368212188925 0.0000000000000000 1.0062450051754286 
0.8046875000000000 0.0078125000000000 0.6516669404275410 0.0000000000000000 1.0063064233708607 
0.8125000000000000 0.0078125000000000 0.6644214467024647 0.0000000000000000 1.0063678453150764 
0.8203125000000000 0.0078125000000000 0.6773003626792947 0.0000000000000000 1.0064292710083045 
0.8281250000000000 0.0078125000000000 0.6903037109964201 0.0000000000000000 1.0064907004507739 
0.8359375000000000 0.0078125000000000 0.7034315142949870 0.0000000000000000 1.0065521336427132 
0.8437500000000000 0.0078125000000000 0.7166837952189001 0.0000000000000000 1.0066135705843515 
0.8515625000000000 0.0078125000000000 0.7300605764148225 0.0000000000000000 1.0066750112759175 
0.8593750000000000 0.0078125000000000 0.7435618805321755 0.0000000000000000 1.0067364557176401 
0.8671875000000000 0.0078125000000000 0.7571877302231396 0.0000000000000000 1.0067979039097483 
0.8750000000000000 0.0078125000000000 0.7709381481426544 0.0000000000000000 1.0068593558524710 
0.8828125000000000 0.0078125000000000 0.7848131569484188 0.0000000000000000 1.0069208115460371 
0.8906250000000000 0.0078125000000000 0.7988127793008917 0.0000000000000000 1.0069822709906755 
0.8984375000000000 0.0078125000000000 0.8129370378632917 0.0000000000000000 1.0070437341866152 
0.9062500000000000 0.0078125000000000 0.8271859553015981 0.0000000000000000 1.0071052011340851 
0.9140625000000000 0.0078125000000000 0.8415595542845503 0.0000000000000000 1.0071666718333143 
0.9218750000000000 0.0078125000000000 0.8560578574836490 0.0000000000000000 1.0072281462845318 
0.9296875000000000 0.0078125000000000 0.8706808875731556 0.0000000000000000 1.0072896244879666 
0.9375000000000000 0.0078125000000000 0.8854286672300932 0.0000000000000000 1.0073511064438474 
0.9453125000000000 0.0078125000000000 0.9003012191342463 0.0000000000000000 1.0074125921524035 
0.9531250000000000 0.0078125000000000 0.9152985659681623 0.0000000000000000 1.0074740816138643 
0.9609375000000000 0.0078125000000000 0.9304207304171492 0.0000000000000000 1.0075355748284582 
0.9687500000000000 0.0078125000000000 0.9456677351692790 0.0000000000000000 1.0075970717964147 
0.9765625000000000 0.0078125000000000 0.9610396029153864 0.0000000000000000 1.0076585725179630 
0.9843750000000000 0.0078125000000000 0.9765363563490678 0.0000000000000000 1.0077200769933317 
0.9921875000000000 0.0078125000000000 0.9921580181666847 0.0000000000000000 1.0077815852227503 
1.0000000000000000 0.0078125000000000 1.0079046110673615 1.0078430972064480 1.0078430972064480 
0.0000000000000000 0.0156250000000000 0.0002441406250000 1.0000000000000000 1.0000000000000000 
0.0078125000000000 0.0156250000000000 0.0003052130364268 0.0000000000000000 1.0001220777633837 
0.0156250000000000 0.0156250000000000 0.0004884004738427 0.0000000000000000 1.0002441704297478 
0.0234375000000000 0.0156250000000000 0.0007937476571052 0.0000000000000000 1.0003662780009115 
0.0312500000000000 0.0156250000000000 0.0012212993169906 0.0000000000000000 1.0004884004786945 
0.0390625000000000 0.0156250000000000 0.0017711001951955 0.0000000000000000 1.0006105378649164 
0.0468750000000000 0.0156250000000000 0.0024431950443393 0.0000000000000000 1.0007326901613971 
0.0546875000000000 0.0156250000000000 0.0032376286279668 0.0000000000000000 1.0008548573699569 
0.0625000000000000 0.0156250000000000 0.0041544457205496 0.0000000000000000 1.0009770394924165 
0.0703125000000000 0.0156250000000000 0.0051936911074891 0.0000000000000000 1.0010992365305962 
0.0781250000000000 0.0156250000000000 0.0063554095851182 0.0000000000000000 1.0012214484863171 
0.0859375000000000 0.0156250000000000 0.0076396459607040 0.0000000000000000 1.0013436753614002 
0.0937500000000000 0.0156250000000000 0.0090464450524496 0.0000000000000000 1.0014659171576668 
0.1015625000000000 0.0156250000000000 0.0105758516894965 0.0000000000000000 1.0015881738769385 
0.1093750000000000 0.0156250000000000 0.0122279107119267 0.0000000000000000 1.0017104455210371 
0.1171875000000000 0.0156250000000000 0.0140026669707653 0.0000000000000000 1.0018327320917844 
0.1250000000000000 0.0156250000000000 0.0159001653279822 0.0000000000000000 1.0019550335910028 
0.1328125000000000 0.0156250000000000 0.0179204506564948 0.0000000000000000 1.0020773500205147 
0.1406250000000000 0.0156250000000000 0.0200635678401699 0.0000000000000000 1.0021996813821428 
0.1484375000000000 0.0156250000000000 0.0223295617738259 0.0000000000000000 1.0023220276777098 
0.1562500000000000 0.0156250000000000 0.0247184773632356 0.0000000000000000 1.0024443889090391 
0.1640625000000000 0.0156250000000000 0.0272303595251275 0.0000000000000000 1.0025667650779537 
0.1718750000000000 0.0156250000000000 0.0298652531871889 0.0000000000000000 1.0026891561862772 
0.1796875000000000 0.0156250000000000 0.0326232032880676 0.0000000000000000 1.0028115622358336 
0.1875000000000000 0.0156250000000000 0.0355042547773742 0.0000000000000000 1.0029339832284467 
0.1953125000000000 0.0156250000000000 0.0385084526156846 0.0000000000000000 1.0030564191659408 
0.2031250000000000 0.0156250000000000 0.0416358417745420 0.0000000000000000 1.0031788700501403 
0.2109375000000000 0.0156250000000000 0.0448864672364590 0.0000000000000000 1.0033013358828700 
0.2187500000000000 0.0156250000000000 0.0482603739949202 0.0000000000000000 1.0034238166659546 
0.2265625000000000 0.0156250000000000 0.0517576070543842 0.0000000000000000 1.0035463124012192 
0.2343750000000000 0.0156250000000000 0.0553782114302858 0.0000000000000000 1.0036688230904891 
0.2421875000000000 0.0156250000000000 0.0591222321490384 0.0000000000000000 1.0037913487355901 
0.2500000000000000 0.0156250000000000 0.0629897142480360 0.0000000000000000 1.0039138893383475 
0.2578125000000000 0.0156250000000000 0.0669807027756557 0.0000000000000000 1.0040364449005879 
0.2656250000000000 0.0156250000000000 0.0710952427912597 0.0000000000000000 1.0041590154241371 
0.2734375000000000 0.0156250000000000 0.0753333793651978 0.0000000000000000 1.0042816009108217 
0.2812500000000000 0.0156250000000000 0.0796951575788092 0.0000000000000000 1.0044042013624686 
0.2890625000000000 0.0156250000000000 0.0841806225244251 0.0000000000000000 1.0045268167809041 
0.2968750000000000 0.0156250000000000 0.0887898193053711 0.0000000000000000 1.0046494471679557 
0.3046875000000000 0.0156250000000000 0.0935227930359688 0.0000000000000000 1.0047720925254506 
0.3125000000000000 0.0156250000000000 0.0983795888415385 0.0000000000000000 1.0048947528552166 
0.3203125000000000 0.0156250000000000 0.1033602518584016 0.0000000000000000 1.0050174281590813 
0.3281250000000000 0.0156250000000000 0.1084648272338822 0.0000000000000000 1.0051401184388726 
0.3359375000000000 0.0156250000000000 0.1136933601263101 0.0000000000000000 1.0052628236964190 
0.3437500000000000 0.0156250000000000 0.1190458957050222 0.0000000000000000 1.0053855439335486 
0.3515625000000000 0.0156250000000000 0.1245224791503657 0.0000000000000000 1.0055082791520904 
0.3593750000000000 0.0156250000000000 0.1301231556536994 0.0000000000000000 1.0056310293538733 
0.3671875000000000 0.0156250000000000 0.1358479704173967 0.0000000000000000 1.0057537945407260 
0.3750000000000000 0.0156250000000000 0.1416969686548472 0.0000000000000000 1.0058765747144782 
0.3828125000000000 0.0156250000000000 0.1476701955904595 0.0000000000000000 1.0059993698769596 
0.3906250000000000 0.0156250000000000 0.1537676964596630 0.0000000000000000 1.0061221800299998 
0.3984375000000000 0.0156250000000000 0.1599895165089106 0.0000000000000000 1.0062450051754286 
0.4062500000000000 0.0156250000000000 0.1663357009956803 0.0000000000000000 1.0063678453150764 