variables ="x","y","f","u","ue", "e" 
zone f=point i = 128,j = 128
0.0000000000000000 0.0000000000000000 0.0000000000000000 1.0000000000000000 1.0000000000000000 0.0000000000000000 
0.0078125000000000 0.0000000000000000 0.0000610351562500 1.0000000000000000 1.0000000000000000 0.0000000000000000 
0.0156250000000000 0.0000000000000000 0.0002441406250000 1.0000000000000000 1.0000000000000000 0.0000000000000000 
0.0234375000000000 0.0000000000000000 0.0005493164062500 1.0000000000000000 1.0000000000000000 0.0000000000000000 
0.0312500000000000 0.0000000000000000 0.0009765625000000 1.0000000000000000 1.0000000000000000 0.0000000000000000 
0.0390625000000000 0.0000000000000000 0.0015258789062500 1.0000000000000000 1.0000000000000000 0.0000000000000000 
0.0468750000000000 0.0000000000000000 0.0021972656250000 1.0000000000000000 1.0000000000000000 0.0000000000000000 
0.0546875000000000 0.0000000000000000 0.0029907226562500 1.0000000000000000 1.0000000000000000 0.0000000000000000 
0.0625000000000000 0.0000000000000000 0.0039062500000000 1.0000000000000000 1.0000000000000000 0.0000000000000000 
0.0703125000000000 0.0000000000000000 0.0049438476562500 1.0000000000000000 1.0000000000000000 0.0000000000000000 
0.0781250000000000 0.0000000000000000 0.0061035156250000 1.0000000000000000 1.0000000000000000 0.0000000000000000 
0.0859375000000000 0.0000000000000000 0.0073852539062500 1.0000000000000000 1.0000000000000000 0.0000000000000000 
0.0937500000000000 0.0000000000000000 0.0087890625000000 1.0000000000000000 1.0000000000000000 0.0000000000000000 
0.1015625000000000 0.0000000000000000 0.0103149414062500 1.0000000000000000 1.0000000000000000 0.0000000000000000 
0.1093750000000000 0.0000000000000000 0.0119628906250000 1.0000000000000000 1.0000000000000000 0.0000000000000000 
0.1171875000000000 0.0000000000000000 0.0137329101562500 1.0000000000000000 1.0000000000000000 0.0000000000000000 
0.1250000000000000 0.0000000000000000 0.0156250000000000 1.0000000000000000 1.0000000000000000 0.0000000000000000 
0.1328125000000000 0.0000000000000000 0.0176391601562500 1.0000000000000000 1.0000000000000000 0.0000000000000000 
0.1406250000000000 0.0000000000000000 0.0197753906250000 1.0000000000000000 1.0000000000000000 0.0000000000000000 
0.1484375000000000 0.0000000000000000 0.0220336914062500 1.0000000000000000 1.0000000000000000 0.0000000000000000 
0.1562500000000000 0.0000000000000000 0.0244140625000000 1.0000000000000000 1.0000000000000000 0.0000000000000000 
0.1640625000000000 0.0000000000000000 0.0269165039062500 1.0000000000000000 1.0000000000000000 0.0000000000000000 
0.1718750000000000 0.0000000000000000 0.0295410156250000 1.0000000000000000 1.0000000000000000 0.0000000000000000 
0.1796875000000000 0.0000000000000000 0.0322875976562500 1.0000000000000000 1.0000000000000000 0.0000000000000000 
0.1875000000000000 0.0000000000000000 0.0351562500000000 1.0000000000000000 1.0000000000000000 0.0000000000000000 
0.1953125000000000 0.0000000000000000 0.0381469726562500 1.0000000000000000 1.0000000000000000 0.0000000000000000 
0.2031250000000000 0.0000000000000000 0.0412597656250000 1.0000000000000000 1.0000000000000000 0.0000000000000000 
0.2109375000000000 0.0000000000000000 0.0444946289062500 1.0000000000000000 1.0000000000000000 0.0000000000000000 
0.2187500000000000 0.0000000000000000 0.0478515625000000 1.0000000000000000 1.0000000000000000 0.0000000000000000 
0.2265625000000000 0.0000000000000000 0.0513305664062500 1.0000000000000000 1.0000000000000000 0.0000000000000000 
0.2343750000000000 0.0000000000000000 0.0549316406250000 1.0000000000000000 1.0000000000000000 0.0000000000000000 
0.2421875000000000 0.0000000000000000 0.0586547851562500 1.0000000000000000 1.0000000000000000 0.0000000000000000 
0.2500000000000000 0.0000000000000000 0.0625000000000000 1.0000000000000000 1.0000000000000000 0.0000000000000000 
0.2578125000000000 0.0000000000000000 0.0664672851562500 1.0000000000000000 1.0000000000000000 0.0000000000000000 
0.2656250000000000 0.0000000000000000 0.0705566406250000 1.0000000000000000 1.0000000000000000 0.0000000000000000 
0.2734375000000000 0.0000000000000000 0.0747680664062500 1.0000000000000000 1.0000000000000000 0.0000000000000000 
0.2812500000000000 0.0000000000000000 0.0791015625000000 1.0000000000000000 1.0000000000000000 0.0000000000000000 
0.2890625000000000 0.0000000000000000 0.0835571289062500 1.0000000000000000 1.0000000000000000 0.0000000000000000 
0.2968750000000000 0.0000000000000000 0.0881347656250000 1.0000000000000000 1.0000000000000000 0.0000000000000000 
0.3046875000000000 0.0000000000000000 0.0928344726562500 1.0000000000000000 1.0000000000000000 0.0000000000000000 
0.3125000000000000 0.0000000000000000 0.0976562500000000 1.0000000000000000 1.0000000000000000 0.0000000000000000 
0.3203125000000000 0.0000000000000000 0.1026000976562500 1.0000000000000000 1.0000000000000000 0.0000000000000000 
0.3281250000000000 0.0000000000000000 0.1076660156250000 1.0000000000000000 1.0000000000000000 0.0000000000000000 
0.3359375000000000 0.0000000000000000 0.1128540039062500 1.0000000000000000 1.0000000000000000 0.0000000000000000 
0.3437500000000000 0.0000000000000000 0.1181640625000000 1.0000000000000000 1.0000000000000000 0.0000000000000000 
0.3515625000000000 0.0000000000000000 0.1235961914062500 1.0000000000000000 1.0000000000000000 0.0000000000000000 
0.3593750000000000 0.0000000000000000 0.1291503906250000 1.0000000000000000 1.0000000000000000 0.0000000000000000 
0.3671875000000000 0.0000000000000000 0.1348266601562500 1.0000000000000000 1.0000000000000000 0.0000000000000000 
0.3750000000000000 0.0000000000000000 0.1406250000000000 1.0000000000000000 1.0000000000000000 0.0000000000000000 
0.3828125000000000 0.0000000000000000 0.1465454101562500 1.0000000000000000 1.0000000000000000 0.0000000000000000 
0.3906250000000000 0.0000000000000000 0.1525878906250000 1.0000000000000000 1.0000000000000000 0.0000000000000000 
0.3984375000000000 0.0000000000000000 0.1587524414062500 1.0000000000000000 1.0000000000000000 0.0000000000000000 
0.4062500000000000 0.0000000000000000 0.1650390625000000 1.0000000000000000 1.0000000000000000 0.0000000000000000 
0.4140625000000000 0.0000000000000000 0.1714477539062500 1.0000000000000000 1.0000000000000000 0.0000000000000000 
0.4218750000000000 0.0000000000000000 0.1779785156250000 1.0000000000000000 1.0000000000000000 0.0000000000000000 
0.4296875000000000 0.0000000000000000 0.1846313476562500 1.0000000000000000 1.0000000000000000 0.0000000000000000 
0.4375000000000000 0.0000000000000000 0.1914062500000000 1.0000000000000000 1.0000000000000000 0.0000000000000000 
0.4453125000000000 0.0000000000000000 0.1983032226562500 1.0000000000000000 1.0000000000000000 0.0000000000000000 
0.4531250000000000 0.0000000000000000 0.2053222656250000 1.0000000000000000 1.0000000000000000 0.0000000000000000 
0.4609375000000000 0.0000000000000000 0.2124633789062500 1.0000000000000000 1.0000000000000000 0.0000000000000000 
0.4687500000000000 0.0000000000000000 0.2197265625000000 1.0000000000000000 1.0000000000000000 0.0000000000000000 
0.4765625000000000 0.0000000000000000 0.2271118164062500 1.0000000000000000 1.0000000000000000 0.0000000000000000 
0.4843750000000000 0.0000000000000000 0.2346191406250000 1.0000000000000000 1.0000000000000000 0.0000000000000000 
0.4921875000000000 0.0000000000000000 0.2422485351562500 1.0000000000000000 1.0000000000000000 0.0000000000000000 
0.5000000000000000 0.0000000000000000 0.2500000000000000 1.0000000000000000 1.0000000000000000 0.0000000000000000 
0.5078125000000000 0.0000000000000000 0.2578735351562500 1.0000000000000000 1.0000000000000000 0.0000000000000000 
0.5156250000000000 0.0000000000000000 0.2658691406250000 1.0000000000000000 1.0000000000000000 0.0000000000000000 
0.5234375000000000 0.0000000000000000 0.2739868164062500 1.0000000000000000 1.0000000000000000 0.0000000000000000 
0.5312500000000000 0.0000000000000000 0.2822265625000000 1.0000000000000000 1.0000000000000000 0.0000000000000000 
0.5390625000000000 0.0000000000000000 0.2905883789062500 1.0000000000000000 1.0000000000000000 0.0000000000000000 
0.5468750000000000 0.0000000000000000 0.2990722656250000 1.0000000000000000 1.0000000000000000 0.0000000000000000 
0.5546875000000000 0.0000000000000000 0.3076782226562500 1.0000000000000000 1.0000000000000000 0.0000000000000000 
0.5625000000000000 0.0000000000000000 0.3164062500000000 1.0000000000000000 1.0000000000000000 0.0000000000000000 
0.5703125000000000 0.0000000000000000 0.3252563476562500 1.0000000000000000 1.0000000000000000 0.0000000000000000 
0.5781250000000000 0.0000000000000000 0.3342285156250000 1.0000000000000000 1.0000000000000000 0.0000000000000000 
0.5859375000000000 0.0000000000000000 0.3433227539062500 1.0000000000000000 1.0000000000000000 0.0000000000000000 
0.5937500000000000 0.0000000000000000 0.3525390625000000 1.0000000000000000 1.0000000000000000 0.0000000000000000 
0.6015625000000000 0.0000000000000000 0.3618774414062500 1.0000000000000000 1.0000000000000000 0.0000000000000000 
0.6093750000000000 0.0000000000000000 0.3713378906250000 1.0000000000000000 1.0000000000000000 0.0000000000000000 
0.6171875000000000 0.0000000000000000 0.3809204101562500 1.0000000000000000 1.0000000000000000 0.0000000000000000 
0.6250000000000000 0.0000000000000000 0.3906250000000000 1.0000000000000000 1.0000000000000000 0.0000000000000000 
0.6328125000000000 0.0000000000000000 0.4004516601562500 1.0000000000000000 1.0000000000000000 0.0000000000000000 
0.6406250000000000 0.0000000000000000 0.4104003906250000 1.0000000000000000 1.0000000000000000 0.0000000000000000 
0.6484375000000000 0.0000000000000000 0.4204711914062500 1.0000000000000000 1.0000000000000000 0.0000000000000000 
0.6562500000000000 0.0000000000000000 0.4306640625000000 1.0000000000000000 1.0000000000000000 0.0000000000000000 
0.6640625000000000 0.0000000000000000 0.4409790039062500 1.0000000000000000 1.0000000000000000 0.0000000000000000 
0.6718750000000000 0.0000000000000000 0.4514160156250000 1.0000000000000000 1.0000000000000000 0.0000000000000000 
0.6796875000000000 0.0000000000000000 0.4619750976562500 1.0000000000000000 1.0000000000000000 0.0000000000000000 
0.6875000000000000 0.0000000000000000 0.4726562500000000 1.0000000000000000 1.0000000000000000 0.0000000000000000 
0.6953125000000000 0.0000000000000000 0.4834594726562500 1.0000000000000000 1.0000000000000000 0.0000000000000000 
0.7031250000000000 0.0000000000000000 0.4943847656250000 1.0000000000000000 1.0000000000000000 0.0000000000000000 
0.7109375000000000 0.0000000000000000 0.5054321289062500 1.0000000000000000 1.0000000000000000 0.0000000000000000 
0.7187500000000000 0.0000000000000000 0.5166015625000000 1.0000000000000000 1.0000000000000000 0.0000000000000000 
0.7265625000000000 0.0000000000000000 0.5278930664062500 1.0000000000000000 1.0000000000000000 0.0000000000000000 
0.7343750000000000 0.0000000000000000 0.5393066406250000 1.0000000000000000 1.0000000000000000 0.0000000000000000 
0.7421875000000000 0.0000000000000000 0.5508422851562500 1.0000000000000000 1.0000000000000000 0.0000000000000000 
0.7500000000000000 0.0000000000000000 0.5625000000000000 1.0000000000000000 1.0000000000000000 0.0000000000000000 
0.7578125000000000 0.0000000000000000 0.5742797851562500 1.0000000000000000 1.0000000000000000 0.0000000000000000 
0.7656250000000000 0.0000000000000000 0.5861816406250000 1.0000000000000000 1.0000000000000000 0.0000000000000000 
0.7734375000000000 0.0000000000000000 0.5982055664062500 1.0000000000000000 1.0000000000000000 0.0000000000000000 
0.7812500000000000 0.0000000000000000 0.6103515625000000 1.0000000000000000 1.0000000000000000 0.0000000000000000 
0.7890625000000000 0.0000000000000000 0.6226196289062500 1.0000000000000000 1.0000000000000000 0.0000000000000000 
0.7968750000000000 0.0000000000000000 0.6350097656250000 1.0000000000000000 1.0000000000000000 0.0000000000000000 
0.8046875000000000 0.0000000000000000 0.6475219726562500 1.0000000000000000 1.0000000000000000 0.0000000000000000 
0.8125000000000000 0.0000000000000000 0.6601562500000000 1.0000000000000000 1.0000000000000000 0.0000000000000000 
0.8203125000000000 0.0000000000000000 0.6729125976562500 1.0000000000000000 1.0000000000000000 0.0000000000000000 
0.8281250000000000 0.0000000000000000 0.6857910156250000 1.0000000000000000 1.0000000000000000 0.0000000000000000 
0.8359375000000000 0.0000000000000000 0.6987915039062500 1.0000000000000000 1.0000000000000000 0.0000000000000000 
0.8437500000000000 0.0000000000000000 0.7119140625000000 1.0000000000000000 1.0000000000000000 0.0000000000000000 
0.8515625000000000 0.0000000000000000 0.7251586914062500 1.0000000000000000 1.0000000000000000 0.0000000000000000 
0.8593750000000000 0.0000000000000000 0.7385253906250000 1.0000000000000000 1.0000000000000000 0.0000000000000000 
0.8671875000000000 0.0000000000000000 0.7520141601562500 1.0000000000000000 1.0000000000000000 0.0000000000000000 
0.8750000000000000 0.0000000000000000 0.7656250000000000 1.0000000000000000 1.0000000000000000 0.0000000000000000 
0.8828125000000000 0.0000000000000000 0.7793579101562500 1.0000000000000000 1.0000000000000000 0.0000000000000000 
0.8906250000000000 0.0000000000000000 0.7932128906250000 1.0000000000000000 1.0000000000000000 0.0000000000000000 
0.8984375000000000 0.0000000000000000 0.8071899414062500 1.0000000000000000 1.0000000000000000 0.0000000000000000 
0.9062500000000000 0.0000000000000000 0.8212890625000000 1.0000000000000000 1.0000000000000000 0.0000000000000000 
0.9140625000000000 0.0000000000000000 0.8355102539062500 1.0000000000000000 1.0000000000000000 0.0000000000000000 
0.9218750000000000 0.0000000000000000 0.8498535156250000 1.0000000000000000 1.0000000000000000 0.0000000000000000 
0.9296875000000000 0.0000000000000000 0.8643188476562500 1.0000000000000000 1.0000000000000000 0.0000000000000000 
0.9375000000000000 0.0000000000000000 0.8789062500000000 1.0000000000000000 1.0000000000000000 0.0000000000000000 
0.9453125000000000 0.0000000000000000 0.8936157226562500 1.0000000000000000 1.0000000000000000 0.0000000000000000 
0.9531250000000000 0.0000000000000000 0.9084472656250000 1.0000000000000000 1.0000000000000000 0.0000000000000000 
0.9609375000000000 0.0000000000000000 0.9234008789062500 1.0000000000000000 1.0000000000000000 0.0000000000000000 
0.9687500000000000 0.0000000000000000 0.9384765625000000 1.0000000000000000 1.0000000000000000 0.0000000000000000 
0.9765625000000000 0.0000000000000000 0.9536743164062500 1.0000000000000000 1.0000000000000000 0.0000000000000000 
0.9843750000000000 0.0000000000000000 0.9689941406250000 1.0000000000000000 1.0000000000000000 0.0000000000000000 
0.9921875000000000 0.0000000000000000 0.9844360351562500 1.0000000000000000 1.0000000000000000 0.0000000000000000 
1.0000000000000000 0.0000000000000000 1.0000000000000000 1.0000000000000000 1.0000000000000000 0.0000000000000000 
0.0000000000000000 0.0078125000000000 0.0000610351562500 1.0000000000000000 1.0000000000000000 0.0000000000000000 
0.0078125000000000 0.0078125000000000 0.0001220777633080 1.0000610369923242 1.0000610370189331 -0.0000000000266089 
0.0156250000000000 0.0078125000000000 0.0003052130364268 1.0001220777101949 1.0001220777633837 -0.0000000000531888 
0.0234375000000000 0.0078125000000000 0.0006104633314414 1.0001831221538553 1.0001831222335795 -0.0000000000797242 
0.0312500000000000 0.0078125000000000 0.0010378510069156 1.0002441703235496 1.0002441704297478 -0.0000000001061982 
0.0390625000000000 0.0078125000000000 0.0015873984241428 1.0003052222195201 1.0003052223521161 -0.0000000001325959 
0.0468750000000000 0.0078125000000000 0.0022591279471456 1.0003662778420104 1.0003662780009115 -0.0000000001589011 
0.0546875000000000 0.0078125000000000 0.0030530619426769 1.0004273371912640 1.0004273373763619 -0.0000000001850979 
0.0625000000000000 0.0078125000000000 0.0039692227802194 1.0004884002675241 1.0004884004786945 -0.0000000002111704 
0.0703125000000000 0.0078125000000000 0.0050076328319865 1.0005494670710338 1.0005494673081368 -0.0000000002371030 
0.0781250000000000 0.0078125000000000 0.0061683144729222 1.0006105376020356 1.0006105378649164 -0.0000000002628808 
0.0859375000000000 0.0078125000000000 0.0074512900807013 1.0006716118607730 1.0006716121492605 -0.0000000002884875 
0.0937500000000000 0.0078125000000000 0.0088565820357301 1.0007326898474886 1.0007326901613971 -0.0000000003139085 
0.1015625000000000 0.0078125000000000 0.0103842127211465 1.0007937715624255 1.0007937719015534 -0.0000000003391278 
0.1093750000000000 0.0078125000000000 0.0120342045228199 1.0008548570058264 1.0008548573699569 -0.0000000003641305 
0.1171875000000000 0.0078125000000000 0.0138065798293521 1.0009159461779333 1.0009159465668356 -0.0000000003889022 
0.1250000000000000 0.0078125000000000 0.0157013610320771 1.0009770390789887 1.0009770394924165 -0.0000000004134277 
0.1328125000000000 0.0078125000000000 0.0177185705250616 1.0010381357092351 1.0010381361469276 -0.0000000004376925 
0.1406250000000000 0.0078125000000000 0.0198582307051052 1.0010992360689144 1.0010992365305962 -0.0000000004616818 
0.1484375000000000 0.0078125000000000 0.0221203639717408 1.0011603401582687 1.0011603406436502 -0.0000000004853815 
0.1562500000000000 0.0078125000000000 0.0245049927272347 1.0012214479775396 1.0012214484863171 -0.0000000005087775 
0.1640625000000000 0.0078125000000000 0.0270121393765869 1.0012825595269685 1.0012825600588247 -0.0000000005318561 
0.1718750000000000 0.0078125000000000 0.0296418263275317 1.0013436748067972 1.0013436753614002 -0.0000000005546030 
0.1796875000000000 0.0078125000000000 0.0323940759905374 1.0014047938172670 1.0014047943942717 -0.0000000005770047 
0.1875000000000000 0.0078125000000000 0.0352689107788070 1.0014659165586184 1.0014659171576668 -0.0000000005990484 
0.1953125000000000 0.0078125000000000 0.0382663531082785 1.0015270430310925 1.0015270436518131 -0.0000000006207206 
0.2031250000000000 0.0078125000000000 0.0413864253976250 1.0015881732349297 1.0015881738769385 -0.0000000006420089 
0.2109375000000000 0.0078125000000000 0.0446291500682548 1.0016493071703709 1.0016493078332704 -0.0000000006628995 
0.2187500000000000 0.0078125000000000 0.0479945495443124 1.0017104448376557 1.0017104455210371 -0.0000000006833814 
0.2265625000000000 0.0078125000000000 0.0514826462526777 1.0017715862370242 1.0017715869404658 -0.0000000007034415 
0.2343750000000000 0.0078125000000000 0.0550934626229674 1.0018327313687161 1.0018327320917844 -0.0000000007230683 
0.2421875000000000 0.0078125000000000 0.0588270210875343 1.0018938802329704 1.0018938809752209 -0.0000000007422505 
0.2500000000000000 0.0078125000000000 0.0626833440814684 1.0019550328300266 1.0019550335910028 -0.0000000007609762 
0.2578125000000000 0.0078125000000000 0.0666624540425965 1.0020161891601238 1.0020161899393583 -0.0000000007792345 
0.2656250000000000 0.0078125000000000 0.0707643734114829 1.0020773492235002 1.0020773500205147 -0.0000000007970145 
0.2734375000000000 0.0078125000000000 0.0749891246314296 1.0021385130203941 1.0021385138347003 -0.0000000008143062 
0.2812500000000000 0.0078125000000000 0.0793367301484765 1.0021996805510438 1.0021996813821428 -0.0000000008310990 
0.2890625000000000 0.0078125000000000 0.0838072124114017 1.0022608518156868 1.0022608526630701 -0.0000000008473833 
0.2968750000000000 0.0078125000000000 0.0884005938717218 1.0023220268145607 1.0023220276777098 -0.0000000008631491 
0.3046875000000000 0.0078125000000000 0.0931168969836922 1.0023832055479027 1.0023832064262901 -0.0000000008783874 
0.3125000000000000 0.0078125000000000 0.0979561442043073 1.0024443880159495 1.0024443889090391 -0.0000000008930896 
0.3203125000000000 0.0078125000000000 0.1029183579933009 1.0025055742189375 1.0025055751261842 -0.0000000009072467 
0.3281250000000000 0.0078125000000000 0.1080035608131463 1.0025667641571028 1.0025667650779537 -0.0000000009208510 
0.3359375000000000 0.0078125000000000 0.1132117751290567 1.0026279578306818 1.0026279587645752 -0.0000000009338934 
0.3437500000000000 0.0078125000000000 0.1185430234089855 1.0026891552399100 1.0026891561862772 -0.0000000009463672 
0.3515625000000000 0.0078125000000000 0.1239973281236267 1.0027503563850217 1.0027503573432874 -0.0000000009582657 
0.3593750000000000 0.0078125000000000 0.1295747117464148 1.0028115612662527 1.0028115622358336 -0.0000000009695809 
0.3671875000000000 0.0078125000000000 0.1352751967535253 1.0028727698838371 1.0028727708641441 -0.0000000009803069 
0.3750000000000000 0.0078125000000000 0.1410988056238751 1.0029339822380099 1.0029339832284467 -0.0000000009904368 
0.3828125000000000 0.0078125000000000 0.1470455608391226 1.0029951983290040 1.0029951993289696 -0.0000000009999657 
0.3906250000000000 0.0078125000000000 0.1531154848836681 1.0030564181570532 1.0030564191659408 -0.0000000010088876 
0.3984375000000000 0.0078125000000000 0.1593086002446539 1.0031176417223908 1.0031176427395885 -0.0000000010171977 
0.4062500000000000 0.0078125000000000 0.1656249294119647 1.0031788690252492 1.0031788700501403 -0.0000000010248911 
0.4140625000000000 0.0078125000000000 0.1720644948782280 1.0032401000658615 1.0032401010978249 -0.0000000010319634 
0.4218750000000000 0.0078125000000000 0.1786273191388142 1.0033013348444588 1.0033013358828700 -0.0000000010384111 
0.4296875000000000 0.0078125000000000 0.1853134246918368 1.0033625733612739 1.0033625744055037 -0.0000000010442298 
0.4375000000000000 0.0078125000000000 0.1921228340381531 1.0034238156165372 1.0034238166659546 -0.0000000010494174 
0.4453125000000000 0.0078125000000000 0.1990555696813637 1.0034850616104802 1.0034850626644503 -0.0000000010539700 
0.4531250000000000 0.0078125000000000 0.2061116541278139 1.0035463113433334 1.0035463124012192 -0.0000000010578858 
0.4609375000000000 0.0078125000000000 0.2132911098865928 1.0036075648153269 1.0036075658764894 -0.0000000010611625 
0.4687500000000000 0.0078125000000000 0.2205939594695344 1.0036688220266903 1.0036688230904891 -0.0000000010637988 
0.4765625000000000 0.0078125000000000 0.2280202253912175 1.0037300829776541 1.0037300840434464 -0.0000000010657923 
0.4843750000000000 0.0078125000000000 0.2355699301689663 1.0037913476684461 1.0037913487355901 -0.0000000010671439 
0.4921875000000000 0.0078125000000000 0.2432430963228501 1.0038526160992958 1.0038526171671476 -0.0000000010678518 
0.5000000000000000 0.0078125000000000 0.2510397463756842 1.0039138882704313 1.0039138893383475 -0.0000000010679162 
0.5078125000000000 0.0078125000000000 0.2589599028530299 1.0039751641820807 1.0039751652494182 -0.0000000010673376 
0.5156250000000000 0.0078125000000000 0.2670035882831946 1.0040364438344718 1.0040364449005879 -0.0000000010661161 
0.5234375000000000 0.0078125000000000 0.2751708251972327 1.0040977272278315 1.0040977282920847 -0.0000000010642531 
0.5312500000000000 0.0078125000000000 0.2834616361289449 1.0041590143623869 1.0041590154241371 -0.0000000010617502 
0.5390625000000000 0.0078125000000000 0.2918760436148796 1.0042203052383640 1.0042203062969735 -0.0000000010586094 
0.5468750000000000 0.0078125000000000 0.3004140701943321 1.0042815998559897 1.0042816009108217 -0.0000000010548320 
0.5546875000000000 0.0078125000000000 0.3090757384093458 1.0043428982154896 1.0043428992659107 -0.0000000010504211 
0.5625000000000000 0.0078125000000000 0.3178610708047119 1.0044042003170885 1.0044042013624686 -0.0000000010453800 
0.5703125000000000 0.0078125000000000 0.3267700899279697 1.0044655061610119 1.0044655072007234 -0.0000000010397114 
0.5781250000000000 0.0078125000000000 0.3358028183294074 1.0045268157474847 1.0045268167809041 -0.0000000010334194 
0.5859375000000000 0.0078125000000000 0.3449592785620618 1.0045881290767302 1.0045881301032387 -0.0000000010265084 
0.5937500000000000 0.0078125000000000 0.3542394931817188 1.0046494461489734 1.0046494471679557 -0.0000000010189822 
0.6015625000000000 0.0078125000000000 0.3636434847469135 1.0047107669644375 1.0047107679752836 -0.0000000010108461 
0.6093750000000000 0.0078125000000000 0.3731712758189311 1.0047720915233456 1.0047720925254506 -0.0000000010021051 
0.6171875000000000 0.0078125000000000 0.3828228889618063 1.0048334198259208 1.0048334208186855 -0.0000000009927648 
0.6250000000000000 0.0078125000000000 0.3925983467423243 1.0048947518723859 1.0048947528552166 -0.0000000009828307 
0.6328125000000000 0.0078125000000000 0.4024976717300206 1.0049560876629626 1.0049560886352724 -0.0000000009723098 
0.6406250000000000 0.0078125000000000 0.4125208864971815 1.0050174271978729 1.0050174281590813 -0.0000000009612084 
0.6484375000000000 0.0078125000000000 0.4226680136188444 1.0050787704773385 1.0050787714268719 -0.0000000009495333 
0.6562500000000000 0.0078125000000000 0.4329390756727981 1.0051401175015808 1.0051401184388726 -0.0000000009372918 
0.6640625000000000 0.0078125000000000 0.4433340952395829 1.0052014682708199 1.0052014691953122 -0.0000000009244923 
0.6718750000000000 0.0078125000000000 0.4538530949024909 1.0052628227852773 1.0052628236964190 -0.0000000009111416 
0.6796875000000000 0.0078125000000000 0.4644960972475666 1.0053241810451730 1.0053241819424217 -0.0000000008972487 
0.6875000000000000 0.0078125000000000 0.4752631248636068 1.0053855430507264 1.0053855439335486 -0.0000000008828223 
0.6953125000000000 0.0078125000000000 0.4861542003421611 1.0054469088021576 1.0054469096700287 -0.0000000008678711 
0.7031250000000000 0.0078125000000000 0.4971693462775320 1.0055082782996860 1.0055082791520904 -0.0000000008524044 
0.7109375000000000 0.0078125000000000 0.5083085852667755 1.0055696515435306 1.0055696523799624 -0.0000000008364318 
0.7187500000000000 0.0078125000000000 0.5195719399097007 1.0056310285339103 1.0056310293538733 -0.0000000008199630 
0.7265625000000000 0.0078125000000000 0.5309594328088713 1.0056924092710433 1.0056924100740516 -0.0000000008030083 
0.7343750000000000 0.0078125000000000 0.5424710865696042 1.0057537937551477 1.0057537945407260 -0.0000000007855783 
0.7421875000000000 0.0078125000000000 0.5541069237999717 1.0058151819864420 1.0058151827541255 -0.0000000007676835 
0.7500000000000000 0.0078125000000000 0.5658669671107999 1.0058765739651438 1.0058765747144782 -0.0000000007493344 
0.7578125000000000 0.0078125000000000 0.5777512391156706 1.0059379696914699 1.0059379704220135 -0.0000000007305436 
0.7656250000000000 0.0078125000000000 0.5897597624309202 1.0059993691656379 1.0059993698769596 -0.0000000007113217 
0.7734375000000000 0.0078125000000000 0.6018925596756411 1.0060607723878650 1.0060607730795454 -0.0000000006916805 
0.7812500000000000 0.0078125000000000 0.6141496534716814 1.0061221793583675 1.0061221800299998 -0.0000000006716323 
0.7890625000000000 0.0078125000000000 0.6265310664436449 1.0061835900773621 1.0061835907285510 -0.0000000006511889 
0.7968750000000000 0.0078125000000000 0.6390368212188925 1.0062450045450650 1.0062450051754286 -0.0000000006303635 
0.8046875000000000 0.0078125000000000 0.6516669404275410 1.0063064227616922 1.0063064233708607 -0.0000000006091685 
0.8125000000000000 0.0078125000000000 0.6644214467024647 1.0063678447274595 1.0063678453150764 -0.0000000005876168 
0.8203125000000000 0.0078125000000000 0.6773003626792947 1.0064292704425828 1.0064292710083045 -0.0000000005657217 
0.8281250000000000 0.0078125000000000 0.6903037109964201 1.0064906999072776 1.0064907004507739 -0.0000000005434964 
0.8359375000000000 0.0078125000000000 0.7034315142949870 1.0065521331217591 1.0065521336427132 -0.0000000005209542 
0.8437500000000000 0.0078125000000000 0.7166837952189001 1.0066135700862422 1.0066135705843515 -0.0000000004981093 
0.8515625000000000 0.0078125000000000 0.7300605764148225 1.0066750108009423 1.0066750112759175 -0.0000000004749752 
0.8593750000000000 0.0078125000000000 0.7435618805321755 1.0067364552660738 1.0067364557176401 -0.0000000004515663 
0.8671875000000000 0.0078125000000000 0.7571877302231396 1.0067979034818517 1.0067979039097483 -0.0000000004278966 
0.8750000000000000 0.0078125000000000 0.7709381481426544 1.0068593554484904 1.0068593558524710 -0.0000000004039806 
0.8828125000000000 0.0078125000000000 0.7848131569484188 1.0069208111662040 1.0069208115460371 -0.0000000003798331 
0.8906250000000000 0.0078125000000000 0.7988127793008917 1.0069822706352074 1.0069822709906755 -0.0000000003554681 
0.8984375000000000 0.0078125000000000 0.8129370378632917 1.0070437338557139 1.0070437341866152 -0.0000000003309013 
0.9062500000000000 0.0078125000000000 0.8271859553015981 1.0071052008279389 1.0071052011340851 -0.0000000003061462 
0.9140625000000000 0.0078125000000000 0.8415595542845503 1.0071666715520953 1.0071666718333143 -0.0000000002812190 
0.9218750000000000 0.0078125000000000 0.8560578574836490 1.0072281460283972 1.0072281462845318 -0.0000000002561347 
0.9296875000000000 0.0078125000000000 0.8706808875731556 1.0072896242570586 1.0072896244879666 -0.0000000002309080 
0.9375000000000000 0.0078125000000000 0.8854286672300932 1.0073511062382934 1.0073511064438474 -0.0000000002055540 
0.9453125000000000 0.0078125000000000 0.9003012191342463 1.0074125919723151 1.0074125921524035 -0.0000000001800884 
0.9531250000000000 0.0078125000000000 0.9152985659681623 1.0074740814593375 1.0074740816138643 -0.0000000001545268 
0.9609375000000000 0.0078125000000000 0.9304207304171492 1.0075355746995740 1.0075355748284582 -0.0000000001288842 
0.9687500000000000 0.0078125000000000 0.9456677351692790 1.0075970716932385 1.0075970717964147 -0.0000000001031761 
0.9765625000000000 0.0078125000000000 0.9610396029153864 1.0076585724405445 1.0076585725179630 -0.0000000000774185 
0.9843750000000000 0.0078125000000000 0.9765363563490678 1.0077200769417054 1.0077200769933317 -0.0000000000516263 
0.9921875000000000 0.0078125000000000 0.9921580181666847 1.0077815851969356 1.0077815852227503 -0.0000000000258147 
1.0000000000000000 0.0078125000000000 1.0079046110673615 1.0078430972064480 1.0078430972064480 0.0000000000000000 
0.0000000000000000 0.0156250000000000 0.0002441406250000 1.0000000000000000 1.0000000000000000 0.0000000000000000 