variables ="x","y","f","u","ue" 
zone f=point i = 64,j = 64
0.0000000000000000 0.0000000000000000 0.0000000000000000 1.0000000000000000 1.0000000000000000 
0.0000000000000000 0.0156250000000000 0.0002441406250000 1.0000000000000000 1.0000000000000000 
0.0000000000000000 0.0312500000000000 0.0009765625000000 1.0000000000000000 1.0000000000000000 
0.0000000000000000 0.0468750000000000 0.0021972656250000 1.0000000000000000 1.0000000000000000 
0.0000000000000000 0.0625000000000000 0.0039062500000000 1.0000000000000000 1.0000000000000000 
0.0000000000000000 0.0781250000000000 0.0061035156250000 1.0000000000000000 1.0000000000000000 
0.0000000000000000 0.0937500000000000 0.0087890625000000 1.0000000000000000 1.0000000000000000 
0.0000000000000000 0.1093750000000000 0.0119628906250000 1.0000000000000000 1.0000000000000000 
0.0000000000000000 0.1250000000000000 0.0156250000000000 1.0000000000000000 1.0000000000000000 
0.0000000000000000 0.1406250000000000 0.0197753906250000 1.0000000000000000 1.0000000000000000 
0.0000000000000000 0.1562500000000000 0.0244140625000000 1.0000000000000000 1.0000000000000000 
0.0000000000000000 0.1718750000000000 0.0295410156250000 1.0000000000000000 1.0000000000000000 
0.0000000000000000 0.1875000000000000 0.0351562500000000 1.0000000000000000 1.0000000000000000 
0.0000000000000000 0.2031250000000000 0.0412597656250000 1.0000000000000000 1.0000000000000000 
0.0000000000000000 0.2187500000000000 0.0478515625000000 1.0000000000000000 1.0000000000000000 
0.0000000000000000 0.2343750000000000 0.0549316406250000 1.0000000000000000 1.0000000000000000 
0.0000000000000000 0.2500000000000000 0.0625000000000000 1.0000000000000000 1.0000000000000000 
0.0000000000000000 0.2656250000000000 0.0705566406250000 1.0000000000000000 1.0000000000000000 
0.0000000000000000 0.2812500000000000 0.0791015625000000 1.0000000000000000 1.0000000000000000 
0.0000000000000000 0.2968750000000000 0.0881347656250000 1.0000000000000000 1.0000000000000000 
0.0000000000000000 0.3125000000000000 0.0976562500000000 1.0000000000000000 1.0000000000000000 
0.0000000000000000 0.3281250000000000 0.1076660156250000 1.0000000000000000 1.0000000000000000 
0.0000000000000000 0.3437500000000000 0.1181640625000000 1.0000000000000000 1.0000000000000000 
0.0000000000000000 0.3593750000000000 0.1291503906250000 1.0000000000000000 1.0000000000000000 
0.0000000000000000 0.3750000000000000 0.1406250000000000 1.0000000000000000 1.0000000000000000 
0.0000000000000000 0.3906250000000000 0.1525878906250000 1.0000000000000000 1.0000000000000000 
0.0000000000000000 0.4062500000000000 0.1650390625000000 1.0000000000000000 1.0000000000000000 
0.0000000000000000 0.4218750000000000 0.1779785156250000 1.0000000000000000 1.0000000000000000 
0.0000000000000000 0.4375000000000000 0.1914062500000000 1.0000000000000000 1.0000000000000000 
0.0000000000000000 0.4531250000000000 0.2053222656250000 1.0000000000000000 1.0000000000000000 
0.0000000000000000 0.4687500000000000 0.2197265625000000 1.0000000000000000 1.0000000000000000 
0.0000000000000000 0.4843750000000000 0.2346191406250000 1.0000000000000000 1.0000000000000000 
0.0000000000000000 0.5000000000000000 0.2500000000000000 1.0000000000000000 1.0000000000000000 
0.0000000000000000 0.5156250000000000 0.2658691406250000 1.0000000000000000 1.0000000000000000 
0.0000000000000000 0.5312500000000000 0.2822265625000000 1.0000000000000000 1.0000000000000000 
0.0000000000000000 0.5468750000000000 0.2990722656250000 1.0000000000000000 1.0000000000000000 
0.0000000000000000 0.5625000000000000 0.3164062500000000 1.0000000000000000 1.0000000000000000 
0.0000000000000000 0.5781250000000000 0.3342285156250000 1.0000000000000000 1.0000000000000000 
0.0000000000000000 0.5937500000000000 0.3525390625000000 1.0000000000000000 1.0000000000000000 
0.0000000000000000 0.6093750000000000 0.3713378906250000 1.0000000000000000 1.0000000000000000 
0.0000000000000000 0.6250000000000000 0.3906250000000000 1.0000000000000000 1.0000000000000000 
0.0000000000000000 0.6406250000000000 0.4104003906250000 1.0000000000000000 1.0000000000000000 
0.0000000000000000 0.6562500000000000 0.4306640625000000 1.0000000000000000 1.0000000000000000 
0.0000000000000000 0.6718750000000000 0.4514160156250000 1.0000000000000000 1.0000000000000000 
0.0000000000000000 0.6875000000000000 0.4726562500000000 1.0000000000000000 1.0000000000000000 
0.0000000000000000 0.7031250000000000 0.4943847656250000 1.0000000000000000 1.0000000000000000 
0.0000000000000000 0.7187500000000000 0.5166015625000000 1.0000000000000000 1.0000000000000000 
0.0000000000000000 0.7343750000000000 0.5393066406250000 1.0000000000000000 1.0000000000000000 
0.0000000000000000 0.7500000000000000 0.5625000000000000 1.0000000000000000 1.0000000000000000 
0.0000000000000000 0.7656250000000000 0.5861816406250000 1.0000000000000000 1.0000000000000000 
0.0000000000000000 0.7812500000000000 0.6103515625000000 1.0000000000000000 1.0000000000000000 
0.0000000000000000 0.7968750000000000 0.6350097656250000 1.0000000000000000 1.0000000000000000 
0.0000000000000000 0.8125000000000000 0.6601562500000000 1.0000000000000000 1.0000000000000000 
0.0000000000000000 0.8281250000000000 0.6857910156250000 1.0000000000000000 1.0000000000000000 
0.0000000000000000 0.8437500000000000 0.7119140625000000 1.0000000000000000 1.0000000000000000 
0.0000000000000000 0.8593750000000000 0.7385253906250000 1.0000000000000000 1.0000000000000000 
0.0000000000000000 0.8750000000000000 0.7656250000000000 1.0000000000000000 1.0000000000000000 
0.0000000000000000 0.8906250000000000 0.7932128906250000 1.0000000000000000 1.0000000000000000 
0.0000000000000000 0.9062500000000000 0.8212890625000000 1.0000000000000000 1.0000000000000000 
0.0000000000000000 0.9218750000000000 0.8498535156250000 1.0000000000000000 1.0000000000000000 
0.0000000000000000 0.9375000000000000 0.8789062500000000 1.0000000000000000 1.0000000000000000 
0.0000000000000000 0.9531250000000000 0.9084472656250000 1.0000000000000000 1.0000000000000000 
0.0000000000000000 0.9687500000000000 0.9384765625000000 1.0000000000000000 1.0000000000000000 
0.0000000000000000 0.9843750000000000 0.9689941406250000 1.0000000000000000 1.0000000000000000 
0.0000000000000000 1.0000000000000000 1.0000000000000000 1.0000000000000000 1.0000000000000000 
0.0156250000000000 0.0000000000000000 0.0002441406250000 1.0000000000000000 1.0000000000000000 
0.0156250000000000 0.0156250000000000 0.0004884004738427 0.0000000000000000 1.0002441704297478 
0.0156250000000000 0.0312500000000000 0.0012212993169906 0.0000000000000000 1.0004884004786945 
0.0156250000000000 0.0468750000000000 0.0024431950443393 0.0000000000000000 1.0007326901613971 
0.0156250000000000 0.0625000000000000 0.0041544457205496 0.0000000000000000 1.0009770394924165 
0.0156250000000000 0.0781250000000000 0.0063554095851182 0.0000000000000000 1.0012214484863171 
0.0156250000000000 0.0937500000000000 0.0090464450524496 0.0000000000000000 1.0014659171576668 
0.0156250000000000 0.1093750000000000 0.0122279107119267 0.0000000000000000 1.0017104455210371 
0.0156250000000000 0.1250000000000000 0.0159001653279822 0.0000000000000000 1.0019550335910028 
0.0156250000000000 0.1406250000000000 0.0200635678401699 0.0000000000000000 1.0021996813821428 
0.0156250000000000 0.1562500000000000 0.0247184773632356 0.0000000000000000 1.0024443889090391 
0.0156250000000000 0.1718750000000000 0.0298652531871889 0.0000000000000000 1.0026891561862772 
0.0156250000000000 0.1875000000000000 0.0355042547773742 0.0000000000000000 1.0029339832284467 
0.0156250000000000 0.2031250000000000 0.0416358417745420 0.0000000000000000 1.0031788700501403 
0.0156250000000000 0.2187500000000000 0.0482603739949202 0.0000000000000000 1.0034238166659546 
0.0156250000000000 0.2343750000000000 0.0553782114302858 0.0000000000000000 1.0036688230904891 
0.0156250000000000 0.2500000000000000 0.0629897142480360 0.0000000000000000 1.0039138893383475 
0.0156250000000000 0.2656250000000000 0.0710952427912597 0.0000000000000000 1.0041590154241371 
0.0156250000000000 0.2812500000000000 0.0796951575788092 0.0000000000000000 1.0044042013624686 
0.0156250000000000 0.2968750000000000 0.0887898193053711 0.0000000000000000 1.0046494471679557 
0.0156250000000000 0.3125000000000000 0.0983795888415385 0.0000000000000000 1.0048947528552166 
0.0156250000000000 0.3281250000000000 0.1084648272338822 0.0000000000000000 1.0051401184388726 
0.0156250000000000 0.3437500000000000 0.1190458957050222 0.0000000000000000 1.0053855439335486 
0.0156250000000000 0.3593750000000000 0.1301231556536994 0.0000000000000000 1.0056310293538733 
0.0156250000000000 0.3750000000000000 0.1416969686548472 0.0000000000000000 1.0058765747144782 
0.0156250000000000 0.3906250000000000 0.1537676964596630 0.0000000000000000 1.0061221800299998 
0.0156250000000000 0.4062500000000000 0.1663357009956803 0.0000000000000000 1.0063678453150764 
0.0156250000000000 0.4218750000000000 0.1794013443668400 0.0000000000000000 1.0066135705843515 
0.0156250000000000 0.4375000000000000 0.1929649888535619 0.0000000000000000 1.0068593558524710 
0.0156250000000000 0.4531250000000000 0.2070269969128173 0.0000000000000000 1.0071052011340851 
0.0156250000000000 0.4687500000000000 0.2215877311781998 0.0000000000000000 1.0073511064438474 
0.0156250000000000 0.4843750000000000 0.2366475544599978 0.0000000000000000 1.0075970717964147 
0.0156250000000000 0.5000000000000000 0.2522068297452659 0.0000000000000000 1.0078430972064480 
0.0156250000000000 0.5156250000000000 0.2682659201978971 0.0000000000000000 1.0080891826886114 
0.0156250000000000 0.5312500000000000 0.2848251891586941 0.0000000000000000 1.0083353282575724 
0.0156250000000000 0.5468750000000000 0.3018850001454423 0.0000000000000000 1.0085815339280031 
0.0156250000000000 0.5625000000000000 0.3194457168529804 0.0000000000000000 1.0088277997145780 
0.0156250000000000 0.5781250000000000 0.3375077031532732 0.0000000000000000 1.0090741256319760 
0.0156250000000000 0.5937500000000000 0.3560713230954834 0.0000000000000000 1.0093205116948789 
0.0156250000000000 0.6093750000000000 0.3751369409060437 0.0000000000000000 1.0095669579179729 
0.0156250000000000 0.6250000000000000 0.3947049209887283 0.0000000000000000 1.0098134643159469 
0.0156250000000000 0.6406250000000000 0.4147756279247259 0.0000000000000000 1.0100600309034942 
0.0156250000000000 0.6562500000000000 0.4353494264727109 0.0000000000000000 1.0103066576953110 
0.0156250000000000 0.6718750000000000 0.4564266815689161 0.0000000000000000 1.0105533447060975 
0.0156250000000000 0.6875000000000000 0.4780077583272046 0.0000000000000000 1.0108000919505575 
0.0156250000000000 0.7031250000000000 0.5000930220391419 0.0000000000000000 1.0110468994433983 
0.0156250000000000 0.7187500000000000 0.5226828381740680 0.0000000000000000 1.0112937671993305 
0.0156250000000000 0.7343750000000000 0.5457775723791706 0.0000000000000000 1.0115406952330690 
0.0156250000000000 0.7500000000000000 0.5693775904795555 0.0000000000000000 1.0117876835593316 
0.0156250000000000 0.7656250000000000 0.5934832584783206 0.0000000000000000 1.0120347321928398 
0.0156250000000000 0.7812500000000000 0.6180949425566273 0.0000000000000000 1.0122818411483190 
0.0156250000000000 0.7968750000000000 0.6432130090737735 0.0000000000000000 1.0125290104404983 
0.0156250000000000 0.8125000000000000 0.6688378245672648 0.0000000000000000 1.0127762400841096 
0.0156250000000000 0.8281250000000000 0.6949697557528880 0.0000000000000000 1.0130235300938895 
0.0156250000000000 0.8437500000000000 0.7216091695247830 0.0000000000000000 1.0132708804845771 
0.0156250000000000 0.8593750000000000 0.7487564329555155 0.0000000000000000 1.0135182912709160 
0.0156250000000000 0.8750000000000000 0.7764119132961491 0.0000000000000000 1.0137657624676528 
0.0156250000000000 0.8906250000000000 0.8045759779763183 0.0000000000000000 1.0140132940895383 
0.0156250000000000 0.9062500000000000 0.8332489946043000 0.0000000000000000 1.0142608861513263 
0.0156250000000000 0.9218750000000000 0.8624313309670872 0.0000000000000000 1.0145085386677741 
0.0156250000000000 0.9375000000000000 0.8921233550304615 0.0000000000000000 1.0147562516536435 
0.0156250000000000 0.9531250000000000 0.9223254349390645 0.0000000000000000 1.0150040251236991 
0.0156250000000000 0.9687500000000000 0.9530379390164715 0.0000000000000000 1.0152518590927093 
0.0156250000000000 0.9843750000000000 0.9842612357652643 0.0000000000000000 1.0154997535754464 
0.0156250000000000 1.0000000000000000 1.0159956938671024 1.0157477085866857 1.0157477085866857 
0.0312500000000000 0.0000000000000000 0.0009765625000000 1.0000000000000000 1.0000000000000000 
0.0312500000000000 0.0156250000000000 0.0012212993169906 0.0000000000000000 1.0004884004786945 
0.0312500000000000 0.0312500000000000 0.0019550332802586 0.0000000000000000 1.0009770394924165 
0.0312500000000000 0.0468750000000000 0.0031784806941039 0.0000000000000000 1.0014659171576668 
0.0312500000000000 0.0625000000000000 0.0048923585624561 0.0000000000000000 1.0019550335910028 
0.0312500000000000 0.0781250000000000 0.0070973845894439 0.0000000000000000 1.0024443889090391 
0.0312500000000000 0.0937500000000000 0.0097942771799653 0.0000000000000000 1.0029339832284467 
0.0312500000000000 0.1093750000000000 0.0129837554402577 0.0000000000000000 1.0034238166659546 
0.0312500000000000 0.1250000000000000 0.0166665391784687 0.0000000000000000 1.0039138893383475 
0.0312500000000000 0.1406250000000000 0.0208433489052270 0.0000000000000000 1.0044042013624686 
0.0312500000000000 0.1562500000000000 0.0255149058342145 0.0000000000000000 1.0048947528552166 
0.0312500000000000 0.1718750000000000 0.0306819318827377 0.0000000000000000 1.0053855439335486 
0.0312500000000000 0.1875000000000000 0.0363451496723005 0.0000000000000000 1.0058765747144782 
0.0312500000000000 0.2031250000000000 0.0425052825291768 0.0000000000000000 1.0063678453150764 
0.0312500000000000 0.2187500000000000 0.0491630544849839 0.0000000000000000 1.0068593558524710 
0.0312500000000000 0.2343750000000000 0.0563191902772561 0.0000000000000000 1.0073511064438474 
0.0312500000000000 0.2500000000000000 0.0639744153500187 0.0000000000000000 1.0078430972064480 
0.0312500000000000 0.2656250000000000 0.0721294558543625 0.0000000000000000 1.0083353282575724 
0.0312500000000000 0.2812500000000000 0.0807850386490189 0.0000000000000000 1.0088277997145780 
0.0312500000000000 0.2968750000000000 0.0899418913009353 0.0000000000000000 1.0093205116948789 
0.0312500000000000 0.3125000000000000 0.0996007420858502 0.0000000000000000 1.0098134643159469 
0.0312500000000000 0.3281250000000000 0.1097623199888705 0.0000000000000000 1.0103066576953110 
0.0312500000000000 0.3437500000000000 0.1204273547050469 0.0000000000000000 1.0108000919505575 
0.0312500000000000 0.3593750000000000 0.1315965766399519 0.0000000000000000 1.0112937671993305 
0.0312500000000000 0.3750000000000000 0.1432707169102569 0.0000000000000000 1.0117876835593316 
0.0312500000000000 0.3906250000000000 0.1554505073443097 0.0000000000000000 1.0122818411483190 
0.0312500000000000 0.4062500000000000 0.1681366804827135 0.0000000000000000 1.0127762400841096 
0.0312500000000000 0.4218750000000000 0.1813299695789050 0.0000000000000000 1.0132708804845771 
0.0312500000000000 0.4375000000000000 0.1950311085997340 0.0000000000000000 1.0137657624676528 
0.0312500000000000 0.4531250000000000 0.2092408322260426 0.0000000000000000 1.0142608861513263 
0.0312500000000000 0.4687500000000000 0.2239598758532455 0.0000000000000000 1.0147562516536435 
0.0312500000000000 0.4843750000000000 0.2391889755919103 0.0000000000000000 1.0152518590927093 
0.0312500000000000 0.5000000000000000 0.2549288682683381 0.0000000000000000 1.0157477085866857 
0.0312500000000000 0.5156250000000000 0.2711802914251453 0.0000000000000000 1.0162438002537924 
0.0312500000000000 0.5312500000000000 0.2879439833218446 0.0000000000000000 1.0167401342123066 
0.0312500000000000 0.5468750000000000 0.3052206829354279 0.0000000000000000 1.0172367105805638 
0.0312500000000000 0.5625000000000000 0.3230111299609483 0.0000000000000000 1.0177335294769569 
0.0312500000000000 0.5781250000000000 0.3413160648121028 0.0000000000000000 1.0182305910199367 
0.0312500000000000 0.5937500000000000 0.3601362286218169 0.0000000000000000 1.0187278953280123 
0.0312500000000000 0.6093750000000000 0.3794723632428268 0.0000000000000000 1.0192254425197500 
0.0312500000000000 0.6250000000000000 0.3993252112482651 0.0000000000000000 1.0197232327137742 
0.0312500000000000 0.6406250000000000 0.4196955159322445 0.0000000000000000 1.0202212660287675 
0.0312500000000000 0.6562500000000000 0.4405840213104432 0.0000000000000000 1.0207195425834701 
0.0312500000000000 0.6718750000000000 0.4619914721206907 0.0000000000000000 1.0212180624966807 
0.0312500000000000 0.6875000000000000 0.4839186138235537 0.0000000000000000 1.0217168258872555 
0.0312500000000000 0.7031250000000000 0.5063661926029217 0.0000000000000000 1.0222158328741091 
0.0312500000000000 0.7187500000000000 0.5293349553665950 0.0000000000000000 1.0227150835762138 
0.0312500000000000 0.7343750000000000 0.5528256497468713 0.0000000000000000 1.0232145781126005 
0.0312500000000000 0.7500000000000000 0.5768390241011333 0.0000000000000000 1.0237143166023579 
0.0312500000000000 0.7656250000000000 0.6013758275124370 0.0000000000000000 1.0242142991646328 
0.0312500000000000 0.7812500000000000 0.6264368097901003 0.0000000000000000 1.0247145259186305 
0.0312500000000000 0.7968750000000000 0.6520227214702918 0.0000000000000000 1.0252149969836144 
0.0312500000000000 0.8125000000000000 0.6781343138166205 0.0000000000000000 1.0257157124789060 
0.0312500000000000 0.8281250000000000 0.7047723388207249 0.0000000000000000 1.0262166725238853 
0.0312500000000000 0.8437500000000000 0.7319375492028640 0.0000000000000000 1.0267178772379901 
0.0312500000000000 0.8593750000000000 0.7596306984125080 0.0000000000000000 1.0272193267407173 
0.0312500000000000 0.8750000000000000 0.7878525406289287 0.0000000000000000 1.0277210211516217 
0.0312500000000000 0.8906250000000000 0.8166038307617920 0.0000000000000000 1.0282229605903166 
0.0312500000000000 0.9062500000000000 0.8458853244517487 0.0000000000000000 1.0287251451764734 
0.0312500000000000 0.9218750000000000 0.8756977780710284 0.0000000000000000 1.0292275750298228 
0.0312500000000000 0.9375000000000000 0.9060419487240310 0.0000000000000000 1.0297302502701529 
0.0312500000000000 0.9531250000000000 0.9369185942479207 0.0000000000000000 1.0302331710173109 
0.0312500000000000 0.9687500000000000 0.9683284732132197 0.0000000000000000 1.0307363373912026 
0.0312500000000000 0.9843750000000000 1.0002723449244022 0.0000000000000000 1.0312397495117924 
0.0312500000000000 1.0000000000000000 1.0327509694204886 1.0317434074991028 1.0317434074991028 
0.0468750000000000 0.0000000000000000 0.0021972656250000 1.0000000000000000 1.0000000000000000 
0.0468750000000000 0.0156250000000000 0.0024431950443393 0.0000000000000000 1.0007326901613971 
0.0468750000000000 0.0312500000000000 0.0031784806941039 0.0000000000000000 1.0014659171576668 
0.0468750000000000 0.0468750000000000 0.0044041978185739 0.0000000000000000 1.0021996813821428 
0.0468750000000000 0.0625000000000000 0.0061214232374783 0.0000000000000000 1.0029339832284467 
0.0468750000000000 0.0781250000000000 0.0083312353479191 0.0000000000000000 1.0036688230904891 
0.0468750000000000 0.0937500000000000 0.0110347141262967 0.0000000000000000 1.0044042013624686 
0.0468750000000000 0.1093750000000000 0.0142329411302379 0.0000000000000000 1.0051401184388726 
0.0468750000000000 0.1250000000000000 0.0179269995005266 0.0000000000000000 1.0058765747144782 
0.0468750000000000 0.1406250000000000 0.0221179739630351 0.0000000000000000 1.0066135705843515 
0.0468750000000000 0.1562500000000000 0.0268069508306590 0.0000000000000000 1.0073511064438474 
0.0468750000000000 0.1718750000000000 0.0319950180052538 0.0000000000000000 1.0080891826886114 
0.0468750000000000 0.1875000000000000 0.0376832649795729 0.0000000000000000 1.0088277997145780 
0.0468750000000000 0.2031250000000000 0.0438727828392088 0.0000000000000000 1.0095669579179729 
0.0468750000000000 0.2187500000000000 0.0505646642645358 0.0000000000000000 1.0103066576953110 
0.0468750000000000 0.2343750000000000 0.0577600035326551 0.0000000000000000 1.0110468994433983 
0.0468750000000000 0.2500000000000000 0.0654598965193415 0.0000000000000000 1.0117876835593316 
0.0468750000000000 0.2656250000000000 0.0736654407009933 0.0000000000000000 1.0125290104404983 
0.0468750000000000 0.2812500000000000 0.0823777351565831 0.0000000000000000 1.0132708804845771 
0.0468750000000000 0.2968750000000000 0.0915978805696116 0.0000000000000000 1.0140132940895383 
0.0468750000000000 0.3125000000000000 0.1013269792300635 0.0000000000000000 1.0147562516536435 
0.0468750000000000 0.3281250000000000 0.1115661350363650 0.0000000000000000 1.0154997535754464 
0.0468750000000000 0.3437500000000000 0.1223164534973437 0.0000000000000000 1.0162438002537924 
0.0468750000000000 0.3593750000000000 0.1335790417341911 0.0000000000000000 1.0169883920878191 
0.0468750000000000 0.3750000000000000 0.1453550084824267 0.0000000000000000 1.0177335294769569 
0.0468750000000000 0.3906250000000000 0.1576454640938644 0.0000000000000000 1.0184792128209286 
0.0468750000000000 0.4062500000000000 0.1704515205385812 0.0000000000000000 1.0192254425197500 
0.0468750000000000 0.4218750000000000 0.1837742914068878 0.0000000000000000 1.0199722189737297 
0.0468750000000000 0.4375000000000000 0.1976148919113017 0.0000000000000000 1.0207195425834701 
0.0468750000000000 0.4531250000000000 0.2119744388885221 0.0000000000000000 1.0214674137498667 
0.0468750000000000 0.4687500000000000 0.2268540508014075 0.0000000000000000 1.0222158328741091 
0.0468750000000000 0.4843750000000000 0.2422548477409546 0.0000000000000000 1.0229648003576803 
0.0468750000000000 0.5000000000000000 0.2581779514282802 0.0000000000000000 1.0237143166023579 
0.0468750000000000 0.5156250000000000 0.2746244852166052 0.0000000000000000 1.0244643820102137 
0.0468750000000000 0.5312500000000000 0.2915955740932399 0.0000000000000000 1.0252149969836144 
0.0468750000000000 0.5468750000000000 0.3090923446815730 0.0000000000000000 1.0259661619252212 
0.0468750000000000 0.5625000000000000 0.3271159252430608 0.0000000000000000 1.0267178772379901 
0.0468750000000000 0.5781250000000000 0.3456674456792208 0.0000000000000000 1.0274701433251729 
0.0468750000000000 0.5937500000000000 0.3647480375336255 0.0000000000000000 1.0282229605903166 
0.0468750000000000 0.6093750000000000 0.3843588339938998 0.0000000000000000 1.0289763294372636 
0.0468750000000000 0.6250000000000000 0.4045009698937197 0.0000000000000000 1.0297302502701529 
0.0468750000000000 0.6406250000000000 0.4251755817148138 0.0000000000000000 1.0304847234934187 
0.0468750000000000 0.6562500000000000 0.4463838075889668 0.0000000000000000 1.0312397495117924 
0.0468750000000000 0.6718750000000000 0.4681267873000243 0.0000000000000000 1.0319953287303012 
0.0468750000000000 0.6875000000000000 0.4904056622859020 0.0000000000000000 1.0327514615542697 
0.0468750000000000 0.7031250000000000 0.5132215756405945 0.0000000000000000 1.0335081483893189 
0.0468750000000000 0.7187500000000000 0.5365756721161881 0.0000000000000000 1.0342653896413676 
0.0468750000000000 0.7343750000000000 0.5604690981248751 0.0000000000000000 1.0350231857166314 
0.0468750000000000 0.7500000000000000 0.5849030017409708 0.0000000000000000 1.0357815370216239 
0.0468750000000000 0.7656250000000000 0.6098785327029312 0.0000000000000000 1.0365404439631563 
0.0468750000000000 0.7812500000000000 0.6353968424153762 0.0000000000000000 1.0372999069483384 
0.0468750000000000 0.7968750000000000 0.6614590839511102 0.0000000000000000 1.0380599263845776 
0.0468750000000000 0.8125000000000000 0.6880664120531496 0.0000000000000000 1.0388205026795800 
0.0468750000000000 0.8281250000000000 0.7152199831367498 0.0000000000000000 1.0395816362413510 
0.0468750000000000 0.8437500000000000 0.7429209552914350 0.0000000000000000 1.0403433274781941 
0.0468750000000000 0.8593750000000000 0.7711704882830307 0.0000000000000000 1.0411055767987125 
0.0468750000000000 0.8750000000000000 0.7999697435556978 0.0000000000000000 1.0418683846118086 
0.0468750000000000 0.8906250000000000 0.8293198842339691 0.0000000000000000 1.0426317513266843 
0.0468750000000000 0.9062500000000000 0.8592220751247888 0.0000000000000000 1.0433956773528417 
0.0468750000000000 0.9218750000000000 0.8896774827195526 0.0000000000000000 1.0441601631000823 
0.0468750000000000 0.9375000000000000 0.9206872751961518 0.0000000000000000 1.0449252089785086 
0.0468750000000000 0.9531250000000000 0.9522526224210182 0.0000000000000000 1.0456908153985229 
0.0468750000000000 0.9687500000000000 0.9843746959511727 0.0000000000000000 1.0464569827708288 
0.0468750000000000 0.9843750000000000 1.0170546690362743 0.0000000000000000 1.0472237115064302 
0.0468750000000000 1.0000000000000000 1.0502937166206732 1.0479910020166328 1.0479910020166328 
0.0625000000000000 0.0000000000000000 0.0039062500000000 1.0000000000000000 1.0000000000000000 
0.0625000000000000 0.0156250000000000 0.0041544457205496 0.0000000000000000 1.0009770394924165 
0.0625000000000000 0.0312500000000000 0.0048923585624561 0.0000000000000000 1.0019550335910028 
0.0625000000000000 0.0468750000000000 0.0061214232374783 0.0000000000000000 1.0029339832284467 
0.0625000000000000 0.0625000000000000 0.0078430772604558 0.0000000000000000 1.0039138893383475 
0.0625000000000000 0.0781250000000000 0.0100587609538730 0.0000000000000000 1.0048947528552166 
0.0625000000000000 0.0937500000000000 0.0127699174524299 0.0000000000000000 1.0058765747144782 
0.0625000000000000 0.1093750000000000 0.0159779927076198 0.0000000000000000 1.0068593558524710 
0.0625000000000000 0.1250000000000000 0.0196844354923134 0.0000000000000000 1.0078430972064480 
0.0625000000000000 0.1406250000000000 0.0238906974053501 0.0000000000000000 1.0088277997145780 
0.0625000000000000 0.1562500000000000 0.0285982328761352 0.0000000000000000 1.0098134643159469 
0.0625000000000000 0.1718750000000000 0.0338084991692447 0.0000000000000000 1.0108000919505575 
0.0625000000000000 0.1875000000000000 0.0395229563890364 0.0000000000000000 1.0117876835593316 
0.0625000000000000 0.2031250000000000 0.0457430674842676 0.0000000000000000 1.0127762400841096 
0.0625000000000000 0.2187500000000000 0.0524702982527203 0.0000000000000000 1.0137657624676528 
0.0625000000000000 0.2343750000000000 0.0597061173458320 0.0000000000000000 1.0147562516536435 
0.0625000000000000 0.2500000000000000 0.0674519962733346 0.0000000000000000 1.0157477085866857 
0.0625000000000000 0.2656250000000000 0.0757094094078988 0.0000000000000000 1.0167401342123066 
0.0625000000000000 0.2812500000000000 0.0844798339897865 0.0000000000000000 1.0177335294769569 
0.0625000000000000 0.2968750000000000 0.0937647501315090 0.0000000000000000 1.0187278953280123 
0.0625000000000000 0.3125000000000000 0.1035656408224927 0.0000000000000000 1.0197232327137742 
0.0625000000000000 0.3281250000000000 0.1138839919337514 0.0000000000000000 1.0207195425834701 
0.0625000000000000 0.3437500000000000 0.1247212922225654 0.0000000000000000 1.0217168258872555 
0.0625000000000000 0.3593750000000000 0.1360790333371671 0.0000000000000000 1.0227150835762138 
0.0625000000000000 0.3750000000000000 0.1479587098214346 0.0000000000000000 1.0237143166023579 
0.0625000000000000 0.3906250000000000 0.1603618191195904 0.0000000000000000 1.0247145259186305 
0.0625000000000000 0.4062500000000000 0.1732898615809089 0.0000000000000000 1.0257157124789060 
0.0625000000000000 0.4218750000000000 0.1867443404644294 0.0000000000000000 1.0267178772379901 
0.0625000000000000 0.4375000000000000 0.2007267619436761 0.0000000000000000 1.0277210211516217 
0.0625000000000000 0.4531250000000000 0.2152386351113862 0.0000000000000000 1.0287251451764734 
0.0625000000000000 0.4687500000000000 0.2302814719842432 0.0000000000000000 1.0297302502701529 
0.0625000000000000 0.4843750000000000 0.2458567875076184 0.0000000000000000 1.0307363373912026 
0.0625000000000000 0.5000000000000000 0.2619660995603191 0.0000000000000000 1.0317434074991028 
0.0625000000000000 0.5156250000000000 0.2786109289593428 0.0000000000000000 1.0327514615542697 
0.0625000000000000 0.5312500000000000 0.2957927994646399 0.0000000000000000 1.0337605005180590 
0.0625000000000000 0.5468750000000000 0.3135132377838823 0.0000000000000000 1.0347705253527655 
0.0625000000000000 0.5625000000000000 0.3317737735772389 0.0000000000000000 1.0357815370216239 
0.0625000000000000 0.5781250000000000 0.3505759394621586 0.0000000000000000 1.0367935364888099 
0.0625000000000000 0.5937500000000000 0.3699212710181604 0.0000000000000000 1.0378065247194417 
0.0625000000000000 0.6093750000000000 0.3898113067916295 0.0000000000000000 1.0388205026795800 
0.0625000000000000 0.6250000000000000 0.4102475883006220 0.0000000000000000 1.0398354713362301 
0.0625000000000000 0.6406250000000000 0.4312316600396747 0.0000000000000000 1.0408514316573410 
0.0625000000000000 0.6562500000000000 0.4527650694846239 0.0000000000000000 1.0418683846118086 
0.0625000000000000 0.6718750000000000 0.4748493670974292 0.0000000000000000 1.0428863311694745 
0.0625000000000000 0.6875000000000000 0.4974861063310065 0.0000000000000000 1.0439052723011284 
0.0625000000000000 0.7031250000000000 0.5206768436340664 0.0000000000000000 1.0449252089785086 
0.0625000000000000 0.7187500000000000 0.5444231384559600 0.0000000000000000 1.0459461421743022 
0.0625000000000000 0.7343750000000000 0.5687265532515325 0.0000000000000000 1.0469680728621471 
0.0625000000000000 0.7500000000000000 0.5935886534859834 0.0000000000000000 1.0479910020166328 
0.0625000000000000 0.7656250000000000 0.6190110076397329 0.0000000000000000 1.0490149306133001 
0.0625000000000000 0.7812500000000000 0.6449951872132980 0.0000000000000000 1.0500398596286440 