variables ="x","y","f","u","ue", "e" 
zone f=point i = 64,j = 64
0.0000000000000000 0.0000000000000000 0.0000000000000000 1.0000000000000000 1.0000000000000000 0.0000000000000000 
0.0000000000000000 0.0156250000000000 0.0002441406250000 1.0000000000000000 1.0000000000000000 0.0000000000000000 
0.0000000000000000 0.0312500000000000 0.0009765625000000 1.0000000000000000 1.0000000000000000 0.0000000000000000 
0.0000000000000000 0.0468750000000000 0.0021972656250000 1.0000000000000000 1.0000000000000000 0.0000000000000000 
0.0000000000000000 0.0625000000000000 0.0039062500000000 1.0000000000000000 1.0000000000000000 0.0000000000000000 
0.0000000000000000 0.0781250000000000 0.0061035156250000 1.0000000000000000 1.0000000000000000 0.0000000000000000 
0.0000000000000000 0.0937500000000000 0.0087890625000000 1.0000000000000000 1.0000000000000000 0.0000000000000000 
0.0000000000000000 0.1093750000000000 0.0119628906250000 1.0000000000000000 1.0000000000000000 0.0000000000000000 
0.0000000000000000 0.1250000000000000 0.0156250000000000 1.0000000000000000 1.0000000000000000 0.0000000000000000 
0.0000000000000000 0.1406250000000000 0.0197753906250000 1.0000000000000000 1.0000000000000000 0.0000000000000000 
0.0000000000000000 0.1562500000000000 0.0244140625000000 1.0000000000000000 1.0000000000000000 0.0000000000000000 
0.0000000000000000 0.1718750000000000 0.0295410156250000 1.0000000000000000 1.0000000000000000 0.0000000000000000 
0.0000000000000000 0.1875000000000000 0.0351562500000000 1.0000000000000000 1.0000000000000000 0.0000000000000000 
0.0000000000000000 0.2031250000000000 0.0412597656250000 1.0000000000000000 1.0000000000000000 0.0000000000000000 
0.0000000000000000 0.2187500000000000 0.0478515625000000 1.0000000000000000 1.0000000000000000 0.0000000000000000 
0.0000000000000000 0.2343750000000000 0.0549316406250000 1.0000000000000000 1.0000000000000000 0.0000000000000000 
0.0000000000000000 0.2500000000000000 0.0625000000000000 1.0000000000000000 1.0000000000000000 0.0000000000000000 
0.0000000000000000 0.2656250000000000 0.0705566406250000 1.0000000000000000 1.0000000000000000 0.0000000000000000 
0.0000000000000000 0.2812500000000000 0.0791015625000000 1.0000000000000000 1.0000000000000000 0.0000000000000000 
0.0000000000000000 0.2968750000000000 0.0881347656250000 1.0000000000000000 1.0000000000000000 0.0000000000000000 
0.0000000000000000 0.3125000000000000 0.0976562500000000 1.0000000000000000 1.0000000000000000 0.0000000000000000 
0.0000000000000000 0.3281250000000000 0.1076660156250000 1.0000000000000000 1.0000000000000000 0.0000000000000000 
0.0000000000000000 0.3437500000000000 0.1181640625000000 1.0000000000000000 1.0000000000000000 0.0000000000000000 
0.0000000000000000 0.3593750000000000 0.1291503906250000 1.0000000000000000 1.0000000000000000 0.0000000000000000 
0.0000000000000000 0.3750000000000000 0.1406250000000000 1.0000000000000000 1.0000000000000000 0.0000000000000000 
0.0000000000000000 0.3906250000000000 0.1525878906250000 1.0000000000000000 1.0000000000000000 0.0000000000000000 
0.0000000000000000 0.4062500000000000 0.1650390625000000 1.0000000000000000 1.0000000000000000 0.0000000000000000 
0.0000000000000000 0.4218750000000000 0.1779785156250000 1.0000000000000000 1.0000000000000000 0.0000000000000000 
0.0000000000000000 0.4375000000000000 0.1914062500000000 1.0000000000000000 1.0000000000000000 0.0000000000000000 
0.0000000000000000 0.4531250000000000 0.2053222656250000 1.0000000000000000 1.0000000000000000 0.0000000000000000 
0.0000000000000000 0.4687500000000000 0.2197265625000000 1.0000000000000000 1.0000000000000000 0.0000000000000000 
0.0000000000000000 0.4843750000000000 0.2346191406250000 1.0000000000000000 1.0000000000000000 0.0000000000000000 
0.0000000000000000 0.5000000000000000 0.2500000000000000 1.0000000000000000 1.0000000000000000 0.0000000000000000 
0.0000000000000000 0.5156250000000000 0.2658691406250000 1.0000000000000000 1.0000000000000000 0.0000000000000000 
0.0000000000000000 0.5312500000000000 0.2822265625000000 1.0000000000000000 1.0000000000000000 0.0000000000000000 
0.0000000000000000 0.5468750000000000 0.2990722656250000 1.0000000000000000 1.0000000000000000 0.0000000000000000 
0.0000000000000000 0.5625000000000000 0.3164062500000000 1.0000000000000000 1.0000000000000000 0.0000000000000000 
0.0000000000000000 0.5781250000000000 0.3342285156250000 1.0000000000000000 1.0000000000000000 0.0000000000000000 
0.0000000000000000 0.5937500000000000 0.3525390625000000 1.0000000000000000 1.0000000000000000 0.0000000000000000 
0.0000000000000000 0.6093750000000000 0.3713378906250000 1.0000000000000000 1.0000000000000000 0.0000000000000000 
0.0000000000000000 0.6250000000000000 0.3906250000000000 1.0000000000000000 1.0000000000000000 0.0000000000000000 
0.0000000000000000 0.6406250000000000 0.4104003906250000 1.0000000000000000 1.0000000000000000 0.0000000000000000 
0.0000000000000000 0.6562500000000000 0.4306640625000000 1.0000000000000000 1.0000000000000000 0.0000000000000000 
0.0000000000000000 0.6718750000000000 0.4514160156250000 1.0000000000000000 1.0000000000000000 0.0000000000000000 
0.0000000000000000 0.6875000000000000 0.4726562500000000 1.0000000000000000 1.0000000000000000 0.0000000000000000 
0.0000000000000000 0.7031250000000000 0.4943847656250000 1.0000000000000000 1.0000000000000000 0.0000000000000000 
0.0000000000000000 0.7187500000000000 0.5166015625000000 1.0000000000000000 1.0000000000000000 0.0000000000000000 
0.0000000000000000 0.7343750000000000 0.5393066406250000 1.0000000000000000 1.0000000000000000 0.0000000000000000 
0.0000000000000000 0.7500000000000000 0.5625000000000000 1.0000000000000000 1.0000000000000000 0.0000000000000000 
0.0000000000000000 0.7656250000000000 0.5861816406250000 1.0000000000000000 1.0000000000000000 0.0000000000000000 
0.0000000000000000 0.7812500000000000 0.6103515625000000 1.0000000000000000 1.0000000000000000 0.0000000000000000 
0.0000000000000000 0.7968750000000000 0.6350097656250000 1.0000000000000000 1.0000000000000000 0.0000000000000000 
0.0000000000000000 0.8125000000000000 0.6601562500000000 1.0000000000000000 1.0000000000000000 0.0000000000000000 
0.0000000000000000 0.8281250000000000 0.6857910156250000 1.0000000000000000 1.0000000000000000 0.0000000000000000 
0.0000000000000000 0.8437500000000000 0.7119140625000000 1.0000000000000000 1.0000000000000000 0.0000000000000000 
0.0000000000000000 0.8593750000000000 0.7385253906250000 1.0000000000000000 1.0000000000000000 0.0000000000000000 
0.0000000000000000 0.8750000000000000 0.7656250000000000 1.0000000000000000 1.0000000000000000 0.0000000000000000 
0.0000000000000000 0.8906250000000000 0.7932128906250000 1.0000000000000000 1.0000000000000000 0.0000000000000000 
0.0000000000000000 0.9062500000000000 0.8212890625000000 1.0000000000000000 1.0000000000000000 0.0000000000000000 
0.0000000000000000 0.9218750000000000 0.8498535156250000 1.0000000000000000 1.0000000000000000 0.0000000000000000 
0.0000000000000000 0.9375000000000000 0.8789062500000000 1.0000000000000000 1.0000000000000000 0.0000000000000000 
0.0000000000000000 0.9531250000000000 0.9084472656250000 1.0000000000000000 1.0000000000000000 0.0000000000000000 
0.0000000000000000 0.9687500000000000 0.9384765625000000 1.0000000000000000 1.0000000000000000 0.0000000000000000 
0.0000000000000000 0.9843750000000000 0.9689941406250000 1.0000000000000000 1.0000000000000000 0.0000000000000000 
0.0000000000000000 1.0000000000000000 1.0000000000000000 1.0000000000000000 1.0000000000000000 0.0000000000000000 
0.0156250000000000 0.0000000000000000 0.0002441406250000 1.0000000000000000 1.0000000000000000 0.0000000000000000 
0.0156250000000000 0.0156250000000000 0.0004884004738427 1.0002441710349457 1.0002441704297478 0.0000000006051979 
0.0156250000000000 0.0312500000000000 0.0012212993169906 1.0004884016891180 1.0004884004786945 0.0000000012104235 
0.0156250000000000 0.0468750000000000 0.0024431950443393 1.0007326919770614 1.0007326901613971 0.0000000018156643 
0.0156250000000000 0.0625000000000000 0.0041544457205496 1.0009770419133825 1.0009770394924165 0.0000000024209661 
0.0156250000000000 0.0781250000000000 0.0063554095851182 1.0012214515128133 1.0012214484863171 0.0000000030264962 
0.0156250000000000 0.0937500000000000 0.0090464450524496 1.0014659207900538 1.0014659171576668 0.0000000036323871 
0.0156250000000000 0.1093750000000000 0.0122279107119267 1.0017104497598395 1.0017104455210371 0.0000000042388024 
0.0156250000000000 0.1250000000000000 0.0159001653279822 1.0019550384370792 1.0019550335910028 0.0000000048460764 
0.0156250000000000 0.1406250000000000 0.0200635678401699 1.0021996868366769 1.0021996813821428 0.0000000054545342 
0.0156250000000000 0.1562500000000000 0.0247184773632356 1.0024443949735453 1.0024443889090391 0.0000000060645062 
0.0156250000000000 0.1718750000000000 0.0298652531871889 1.0026891628627426 1.0026891561862772 0.0000000066764654 
0.0156250000000000 0.1875000000000000 0.0355042547773742 1.0029339905193471 1.0029339832284467 0.0000000072909003 
0.0156250000000000 0.2031250000000000 0.0416358417745420 1.0031788779584454 1.0031788700501403 0.0000000079083051 
0.0156250000000000 0.2187500000000000 0.0482603739949202 1.0034238251952483 1.0034238166659546 0.0000000085292937 
0.0156250000000000 0.2343750000000000 0.0553782114302858 1.0036688322449203 1.0036688230904891 0.0000000091544312 
0.0156250000000000 0.2500000000000000 0.0629897142480360 1.0039138991226746 1.0039138893383475 0.0000000097843271 
0.0156250000000000 0.2656250000000000 0.0710952427912597 1.0041590258438160 1.0041590154241371 0.0000000104196789 
0.0156250000000000 0.2812500000000000 0.0796951575788092 1.0044042124235575 1.0044042013624686 0.0000000110610889 
0.0156250000000000 0.2968750000000000 0.0887898193053711 1.0046494588771417 1.0046494471679557 0.0000000117091861 
0.0156250000000000 0.3125000000000000 0.0983795888415385 1.0048947652198525 1.0048947528552166 0.0000000123646360 
0.0156250000000000 0.3281250000000000 0.1084648272338822 1.0051401314668709 1.0051401184388726 0.0000000130279982 
0.0156250000000000 0.3437500000000000 0.1190458957050222 1.0053855576334199 1.0053855439335486 0.0000000136998712 
0.0156250000000000 0.3593750000000000 0.1301231556536994 1.0056310437346090 1.0056310293538733 0.0000000143807357 
0.0156250000000000 0.3750000000000000 0.1416969686548472 1.0058765897854940 1.0058765747144782 0.0000000150710158 
0.0156250000000000 0.3906250000000000 0.1537676964596630 1.0061221958010966 1.0061221800299998 0.0000000157710969 
0.0156250000000000 0.4062500000000000 0.1663357009956803 1.0063678617962837 1.0063678453150764 0.0000000164812073 
0.0156250000000000 0.4218750000000000 0.1794013443668400 1.0066135877858420 1.0066135705843515 0.0000000172014905 
0.0156250000000000 0.4375000000000000 0.1929649888535619 1.0068593737843825 1.0068593558524710 0.0000000179319115 
0.0156250000000000 0.4531250000000000 0.2070269969128173 1.0071052198063912 1.0071052011340851 0.0000000186723061 
0.0156250000000000 0.4687500000000000 0.2215877311781998 1.0073511258661656 1.0073511064438474 0.0000000194223182 
0.0156250000000000 0.4843750000000000 0.2366475544599978 1.0075970919777795 1.0075970717964147 0.0000000201813648 
0.0156250000000000 0.5000000000000000 0.2522068297452659 1.0078431181550871 1.0078430972064480 0.0000000209486390 
0.0156250000000000 0.5156250000000000 0.2682659201978971 1.0080892044116267 1.0080891826886114 0.0000000217230154 
0.0156250000000000 0.5312500000000000 0.2848251891586941 1.0083353507607087 1.0083353282575724 0.0000000225031362 
0.0156250000000000 0.5468750000000000 0.3018850001454423 1.0085815572152752 1.0085815339280031 0.0000000232872721 
0.0156250000000000 0.5625000000000000 0.3194457168529804 1.0088278237878685 1.0088277997145780 0.0000000240732905 
0.0156250000000000 0.5781250000000000 0.3375077031532732 1.0090741504906560 1.0090741256319760 0.0000000248586800 
0.0156250000000000 0.5937500000000000 0.3560713230954834 1.0093205373352951 1.0093205116948789 0.0000000256404162 
0.0156250000000000 0.6093750000000000 0.3751369409060437 1.0095669843329849 1.0095669579179729 0.0000000264150120 
0.0156250000000000 0.6250000000000000 0.3947049209887283 1.0098134914942996 1.0098134643159469 0.0000000271783527 
0.0156250000000000 0.6406250000000000 0.4147756279247259 1.0100600588291708 1.0100600309034942 0.0000000279256767 
0.0156250000000000 0.6562500000000000 0.4353494264727109 1.0103066863468202 1.0103066576953110 0.0000000286515092 
0.0156250000000000 0.6718750000000000 0.4564266815689161 1.0105533740556576 1.0105533447060975 0.0000000293495601 
0.0156250000000000 0.6875000000000000 0.4780077583272046 1.0108001219631928 1.0108000919505575 0.0000000300126353 
0.0156250000000000 0.7031250000000000 0.5000930220391419 1.0110469300758578 1.0110468994433983 0.0000000306324595 
0.0156250000000000 0.7187500000000000 0.5226828381740680 1.0112937983989645 1.0112937671993305 0.0000000311996340 
0.0156250000000000 0.7343750000000000 0.5457775723791706 1.0115407269364249 1.0115406952330690 0.0000000317033559 
0.0156250000000000 0.7500000000000000 0.5693775904795555 1.0117877156906725 1.0117876835593316 0.0000000321313409 
0.0156250000000000 0.7656250000000000 0.5934832584783206 1.0120347646623324 1.0120347321928398 0.0000000324694927 
0.0156250000000000 0.7812500000000000 0.6180949425566273 1.0122818738499162 1.0122818411483190 0.0000000327015972 
0.0156250000000000 0.7968750000000000 0.6432130090737735 1.0125290432494740 1.0125290104404983 0.0000000328089758 
0.0156250000000000 0.8125000000000000 0.6688378245672648 1.0127762728541370 1.0127762400841096 0.0000000327700274 
0.0156250000000000 0.8281250000000000 0.6949697557528880 1.0130235626533943 1.0130235300938895 0.0000000325595049 
0.0156250000000000 0.8437500000000000 0.7216091695247830 1.0132709126322903 1.0132708804845771 0.0000000321477132 
0.0156250000000000 0.8593750000000000 0.7487564329555155 1.0135183227702464 1.0135182912709160 0.0000000314993305 
0.0156250000000000 0.8750000000000000 0.7764119132961491 1.0137657930392980 1.0137657624676528 0.0000000305716452 
0.0156250000000000 0.8906250000000000 0.8045759779763183 1.0140133234017310 1.0140132940895383 0.0000000293121927 
0.0156250000000000 0.9062500000000000 0.8332489946043000 1.0142609138060781 1.0142608861513263 0.0000000276547518 
0.0156250000000000 0.9218750000000000 0.8624313309670872 1.0145085641807909 1.0145085386677741 0.0000000255130168 
0.0156250000000000 0.9375000000000000 0.8921233550304615 1.0147562744230425 1.0147562516536435 0.0000000227693990 
0.0156250000000000 0.9531250000000000 0.9223254349390645 1.0150040443770914 1.0150040251236991 0.0000000192533922 
0.0156250000000000 0.9687500000000000 0.9530379390164715 1.0152518737878218 1.0152518590927093 0.0000000146951125 
0.0156250000000000 0.9843750000000000 0.9842612357652643 1.0154997621881630 1.0154997535754464 0.0000000086127165 
0.0156250000000000 1.0000000000000000 1.0159956938671024 1.0157477085866857 1.0157477085866857 0.0000000000000000 
0.0312500000000000 0.0000000000000000 0.0009765625000000 1.0000000000000000 1.0000000000000000 0.0000000000000000 
0.0312500000000000 0.0156250000000000 0.0012212993169906 1.0004884016891180 1.0004884004786945 0.0000000012104235 
0.0312500000000000 0.0312500000000000 0.0019550332802586 1.0009770419132231 1.0009770394924165 0.0000000024208067 
0.0312500000000000 0.0468750000000000 0.0031784806941039 1.0014659207888705 1.0014659171576668 0.0000000036312038 
0.0312500000000000 0.0625000000000000 0.0048923585624561 1.0019550384327081 1.0019550335910028 0.0000000048417053 
0.0312500000000000 0.0781250000000000 0.0070973845894439 1.0024443949615105 1.0024443889090391 0.0000000060524714 
0.0312500000000000 0.0937500000000000 0.0097942771799653 1.0029339904922474 1.0029339832284467 0.0000000072638007 
0.0312500000000000 0.1093750000000000 0.0129837554402577 1.0034238251420500 1.0034238166659546 0.0000000084760954 
0.0312500000000000 0.1250000000000000 0.0166665391784687 1.0039138990281722 1.0039138893383475 0.0000000096898247 
0.0312500000000000 0.1406250000000000 0.0208433489052270 1.0044042122680530 1.0044042013624686 0.0000000109055844 
0.0312500000000000 0.1562500000000000 0.0255149058342145 1.0048947649793138 1.0048947528552166 0.0000000121240973 
0.0312500000000000 0.1718750000000000 0.0306819318827377 1.0053855572797215 1.0053855439335486 0.0000000133461728 
0.0312500000000000 0.1875000000000000 0.0363451496723005 1.0058765892871671 1.0058765747144782 0.0000000145726888 
0.0312500000000000 0.2031250000000000 0.0425052825291768 1.0063678611197056 1.0063678453150764 0.0000000158046292 
0.0312500000000000 0.2187500000000000 0.0491630544849839 1.0068593728955253 1.0068593558524710 0.0000000170430543 
0.0312500000000000 0.2343750000000000 0.0563191902772561 1.0073511247329237 1.0073511064438474 0.0000000182890763 
0.0312500000000000 0.2500000000000000 0.0639744153500187 1.0078431167502904 1.0078430972064480 0.0000000195438423 
0.0312500000000000 0.2656250000000000 0.0721294558543625 1.0083353490660929 1.0083353282575724 0.0000000208085205 
0.0312500000000000 0.2812500000000000 0.0807850386490189 1.0088278217988667 1.0088277997145780 0.0000000220842886 
0.0312500000000000 0.2968750000000000 0.0899418913009353 1.0093205350672119 1.0093205116948789 0.0000000233723330 
0.0312500000000000 0.3125000000000000 0.0996007420858502 1.0098134889897403 1.0098134643159469 0.0000000246737935 
0.0312500000000000 0.3281250000000000 0.1097623199888705 1.0103066836850141 1.0103066576953110 0.0000000259897031 
0.0312500000000000 0.3437500000000000 0.1204273547050469 1.0108001192716238 1.0108000919505575 0.0000000273210663 
0.0312500000000000 0.3593750000000000 0.1315965766399519 1.0112937958680872 1.0112937671993305 0.0000000286687567 
0.0312500000000000 0.3750000000000000 0.1432707169102569 1.0117877135928364 1.0117876835593316 0.0000000300335048 
0.0312500000000000 0.3906250000000000 0.1554505073443097 1.0122818725641887 1.0122818411483190 0.0000000314158697 
0.0312500000000000 0.4062500000000000 0.1681366804827135 1.0127762729002638 1.0127762400841096 0.0000000328161542 
0.0312500000000000 0.4218750000000000 0.1813299695789050 1.0132709147190719 1.0132708804845771 0.0000000342344948 
0.0312500000000000 0.4375000000000000 0.1950311085997340 1.0137657981383315 1.0137657624676528 0.0000000356706786 
0.0312500000000000 0.4531250000000000 0.2092408322260426 1.0142609232755171 1.0142608861513263 0.0000000371241908 
0.0312500000000000 0.4687500000000000 0.2239598758532455 1.0147562902477503 1.0147562516536435 0.0000000385941068 
0.0312500000000000 0.4843750000000000 0.2391889755919103 1.0152518991717854 1.0152518590927093 0.0000000400790761 
0.0312500000000000 0.5000000000000000 0.2549288682683381 1.0157477501639907 1.0157477085866857 0.0000000415773049 
0.0312500000000000 0.5156250000000000 0.2711802914251453 1.0162438433402032 1.0162438002537924 0.0000000430864109 
0.0312500000000000 0.5312500000000000 0.2879439833218446 1.0167401788157067 1.0167401342123066 0.0000000446034001 
0.0312500000000000 0.5468750000000000 0.3052206829354279 1.0172367567051603 1.0172367105805638 0.0000000461245966 
0.0312500000000000 0.5625000000000000 0.3230111299609483 1.0177335771225360 1.0177335294769569 0.0000000476455790 
0.0312500000000000 0.5781250000000000 0.3413160648121028 1.0182306401810433 1.0182305910199367 0.0000000491611065 
0.0312500000000000 0.5937500000000000 0.3601362286218169 1.0187279459929552 1.0187278953280123 0.0000000506649429 
0.0312500000000000 0.6093750000000000 0.3794723632428268 1.0192254946695909 1.0192254425197500 0.0000000521498409 
0.0312500000000000 0.6250000000000000 0.3993252112482651 1.0197232863211352 1.0197232327137742 0.0000000536073610 
0.0312500000000000 0.6406250000000000 0.4196955159322445 1.0202213210565920 1.0202212660287675 0.0000000550278245 
0.0312500000000000 0.6562500000000000 0.4405840213104432 1.0207195989835409 1.0207195425834701 0.0000000564000708 
0.0312500000000000 0.6718750000000000 0.4619914721206907 1.0212181202079695 1.0212180624966807 0.0000000577112889 
0.0312500000000000 0.6875000000000000 0.4839186138235537 1.0217168848341340 1.0217168258872555 0.0000000589468785 
0.0312500000000000 0.7031250000000000 0.5063661926029217 1.0222158929642564 1.0222158328741091 0.0000000600901473 
0.0312500000000000 0.7187500000000000 0.5293349553665950 1.0227151446983405 1.0227150835762138 0.0000000611221267 
0.0312500000000000 0.7343750000000000 0.5528256497468713 1.0232146401337276 1.0232145781126005 0.0000000620211271 
0.0312500000000000 0.7500000000000000 0.5768390241011333 1.0237143793647823 1.0237143166023579 0.0000000627624244 
0.0312500000000000 0.7656250000000000 0.6013758275124370 1.0242143624823896 1.0242142991646328 0.0000000633177568 
0.0312500000000000 0.7812500000000000 0.6264368097901003 1.0247145895734127 1.0247145259186305 0.0000000636547821 
0.0312500000000000 0.7968750000000000 0.6520227214702918 1.0252150607198995 1.0252149969836144 0.0000000637362851 
0.0312500000000000 0.8125000000000000 0.6781343138166205 1.0257157759981888 1.0257157124789060 0.0000000635192827 
0.0312500000000000 0.8281250000000000 0.7047723388207249 1.0262167354776630 1.0262166725238853 0.0000000629537777 
0.0312500000000000 0.8437500000000000 0.7319375492028640 1.0267179392191725 1.0267178772379901 0.0000000619811824 
0.0312500000000000 0.8593750000000000 0.7596306984125080 1.0272193872728468 1.0272193267407173 0.0000000605321295 
0.0312500000000000 0.8750000000000000 0.7878525406289287 1.0277210796749903 1.0277210211516217 0.0000000585233686 
0.0312500000000000 0.8906250000000000 0.8166038307617920 1.0282230164436692 1.0282229605903166 0.0000000558533526 
0.0312500000000000 0.9062500000000000 0.8458853244517487 1.0287251975720737 1.0287251451764734 0.0000000523956003 
0.0312500000000000 0.9218750000000000 0.8756977780710284 1.0292276230181741 1.0292275750298228 0.0000000479883513 
0.0312500000000000 0.9375000000000000 0.9060419487240310 1.0297302926877754 1.0297302502701529 0.0000000424176225 
0.0312500000000000 0.9531250000000000 0.9369185942479207 1.0302332064056143 1.0302331710173109 0.0000000353883034 
0.0312500000000000 0.9687500000000000 0.9683284732132197 1.0307363638641061 1.0307363373912026 0.0000000264729034 
0.0312500000000000 0.9843750000000000 1.0002723449244022 1.0312397645314149 1.0312397495117924 0.0000000150196224 
0.0312500000000000 1.0000000000000000 1.0327509694204886 1.0317434074991028 1.0317434074991028 0.0000000000000000 
0.0468750000000000 0.0000000000000000 0.0021972656250000 1.0000000000000000 1.0000000000000000 0.0000000000000000 
0.0468750000000000 0.0156250000000000 0.0024431950443393 1.0007326919770614 1.0007326901613971 0.0000000018156643 
0.0468750000000000 0.0312500000000000 0.0031784806941039 1.0014659207888705 1.0014659171576668 0.0000000036312038 
0.0468750000000000 0.0468750000000000 0.0044041978185739 1.0021996868287797 1.0021996813821428 0.0000000054466369 
0.0468750000000000 0.0625000000000000 0.0061214232374783 1.0029339904905328 1.0029339832284467 0.0000000072620860 
0.0468750000000000 0.0781250000000000 0.0083312353479191 1.0036688321682121 1.0036688230904891 0.0000000090777230 
0.0468750000000000 0.0937500000000000 0.0110347141262967 1.0044042122564039 1.0044042013624686 0.0000000108939353 
0.0468750000000000 0.1093750000000000 0.0142329411302379 1.0051401311501367 1.0051401184388726 0.0000000127112640 
0.0468750000000000 0.1250000000000000 0.0179269995005266 1.0058765892448207 1.0058765747144782 0.0000000145303425 
0.0468750000000000 0.1406250000000000 0.0221179739630351 1.0066135869363486 1.0066135705843515 0.0000000163519971 
0.0468750000000000 0.1562500000000000 0.0268069508306590 1.0073511246210898 1.0073511064438474 0.0000000181772424 
0.0468750000000000 0.1718750000000000 0.0319950180052538 1.0080892026957429 1.0080891826886114 0.0000000200071315 
0.0468750000000000 0.1875000000000000 0.0376832649795729 1.0088278215575202 1.0088277997145780 0.0000000218429421 
0.0468750000000000 0.2031250000000000 0.0438727828392088 1.0095669816040294 1.0095669579179729 0.0000000236860564 
0.0468750000000000 0.2187500000000000 0.0505646642645358 1.0103066832331959 1.0103066576953110 0.0000000255378849 
0.0468750000000000 0.2343750000000000 0.0577600035326551 1.0110469268433824 1.0110468994433983 0.0000000273999841 
0.0468750000000000 0.2500000000000000 0.0654598965193415 1.0117877128333068 1.0117876835593316 0.0000000292739752 
0.0468750000000000 0.2656250000000000 0.0736654407009933 1.0125290416019177 1.0125290104404983 0.0000000311614194 
0.0468750000000000 0.2812500000000000 0.0823777351565831 1.0132709135485722 1.0132708804845771 0.0000000330639951 
0.0468750000000000 0.2968750000000000 0.0915978805696116 1.0140133290728017 1.0140132940895383 0.0000000349832634 
0.0468750000000000 0.3125000000000000 0.1013269792300635 1.0147562885743748 1.0147562516536435 0.0000000369207314 
0.0468750000000000 0.3281250000000000 0.1115661350363650 1.0154997924533113 1.0154997535754464 0.0000000388778649 
0.0468750000000000 0.3437500000000000 0.1223164534973437 1.0162438411097339 1.0162438002537924 0.0000000408559415 
0.0468750000000000 0.3593750000000000 0.1335790417341911 1.0169884349438738 1.0169883920878191 0.0000000428560547 
0.0468750000000000 0.3750000000000000 0.1453550084824267 1.0177335743560671 1.0177335294769569 0.0000000448791102 
0.0468750000000000 0.3906250000000000 0.1576454640938644 1.0184792597466288 1.0184792128209286 0.0000000469257002 
0.0468750000000000 0.4062500000000000 0.1704515205385812 1.0192254915158991 1.0192254425197500 0.0000000489961491 
0.0468750000000000 0.4218750000000000 0.1837742914068878 1.0199722700640814 1.0199722189737297 0.0000000510903517 
0.0468750000000000 0.4375000000000000 0.1976148919113017 1.0207195957912472 1.0207195425834701 0.0000000532077771 
0.0468750000000000 0.4531250000000000 0.2119744388885221 1.0214674690972461 1.0214674137498667 0.0000000553473793 
0.0468750000000000 0.4687500000000000 0.2268540508014075 1.0222158903816785 1.0222158328741091 0.0000000575075694 
0.0468750000000000 0.4843750000000000 0.2422548477409546 1.0229648600437646 1.0229648003576803 0.0000000596860843 
0.0468750000000000 0.5000000000000000 0.2581779514282802 1.0237143784822595 1.0237143166023579 0.0000000618799016 
0.0468750000000000 0.5156250000000000 0.2746244852166052 1.0244644460954133 1.0244643820102137 0.0000000640851996 
0.0468750000000000 0.5312500000000000 0.2915955740932399 1.0252150632808557 1.0252149969836144 0.0000000662972413 
0.0468750000000000 0.5468750000000000 0.3090923446815730 1.0259662304354764 1.0259661619252212 0.0000000685102552 
0.0468750000000000 0.5625000000000000 0.3271159252430608 1.0267179479553363 1.0267178772379901 0.0000000707173462 
0.0468750000000000 0.5781250000000000 0.3456674456792208 1.0274702162354630 1.0274701433251729 0.0000000729102900 
0.0468750000000000 0.5937500000000000 0.3647480375336255 1.0282230356698512 1.0282229605903166 0.0000000750795346 
0.0468750000000000 0.6093750000000000 0.3843588339938998 1.0289764066512002 1.0289763294372636 0.0000000772139366 
0.0468750000000000 0.6250000000000000 0.4045009698937197 1.0297303295707667 1.0297302502701529 0.0000000793006139 
0.0468750000000000 0.6406250000000000 0.4251755817148138 1.0304848048181547 1.0304847234934187 0.0000000813247361 
0.0468750000000000 0.6562500000000000 0.4463838075889668 1.0312398327811196 1.0312397495117924 0.0000000832693272 
0.0468750000000000 0.6718750000000000 0.4681267873000243 1.0319954138453045 1.0319953287303012 0.0000000851150033 
0.0468750000000000 0.6875000000000000 0.4904056622859020 1.0327515483939458 1.0327514615542697 0.0000000868396761 
0.0468750000000000 0.7031250000000000 0.5132215756405945 1.0335082368075179 1.0335081483893189 0.0000000884181990 
0.0468750000000000 0.7187500000000000 0.5365756721161881 1.0342654794633031 1.0342653896413676 0.0000000898219354 
0.0468750000000000 0.7343750000000000 0.5604690981248751 1.0350232767350287 1.0350231857166314 0.0000000910183973 
0.0468750000000000 0.7500000000000000 0.5849030017409708 1.0357816289922004 1.0357815370216239 0.0000000919705765 
0.0468750000000000 0.7656250000000000 0.6098785327029312 1.0365405365994533 1.0365404439631563 0.0000000926362971 
0.0468750000000000 0.7812500000000000 0.6353968424153762 1.0372999999157400 1.0372999069483384 0.0000000929674016 
0.0468750000000000 0.7968750000000000 0.6614590839511102 1.0380600192932705 1.0380599263845776 0.0000000929086930 
0.0468750000000000 0.8125000000000000 0.6880664120531496 1.0388205950762281 1.0388205026795800 0.0000000923966481 
0.0468750000000000 0.8281250000000000 0.7152199831367498 1.0395817275991326 1.0395816362413510 0.0000000913577816 
0.0468750000000000 0.8437500000000000 0.7429209552914350 1.0403434171845987 1.0403433274781941 0.0000000897064045 
0.0468750000000000 0.8593750000000000 0.7711704882830307 1.0411056641404370 1.0411055767987125 0.0000000873417245 
0.0468750000000000 0.8750000000000000 0.7999697435556978 1.0418684687557780 1.0418683846118086 0.0000000841439693 
0.0468750000000000 0.8906250000000000 0.8293198842339691 1.0426318312954450 1.0426317513266843 0.0000000799687607 
0.0468750000000000 0.9062500000000000 0.8592220751247888 1.0433957519921377 1.0433956773528417 0.0000000746392961 
0.0468750000000000 0.9218750000000000 0.8896774827195526 1.0441602310348899 1.0441601631000823 0.0000000679348076 
0.0468750000000000 0.9375000000000000 0.9206872751961518 1.0449252685518768 1.0449252089785086 0.0000000595733682 
0.0468750000000000 0.9531250000000000 0.9522526224210182 1.0456908645846499 1.0456908153985229 0.0000000491861269 
0.0468750000000000 0.9687500000000000 0.9843746959511727 1.0464570190502251 1.0464569827708288 0.0000000362793964 
0.0468750000000000 0.9843750000000000 1.0170546690362743 1.0472237316897306 1.0472237115064302 0.0000000201833004 
0.0468750000000000 1.0000000000000000 1.0502937166206732 1.0479910020166328 1.0479910020166328 0.0000000000000000 