variables ="x","y","f","u","ue", "e" 
zone f=point i = 8,j = 8
0.0000000000000000 0.0000000000000000 0.0000000000000000 1.0000000000000000 1.0000000000000000 0.0000000000000000 
0.1250000000000000 0.0000000000000000 0.0156250000000000 1.0000000000000000 1.0000000000000000 0.0000000000000000 
0.2500000000000000 0.0000000000000000 0.0625000000000000 1.0000000000000000 1.0000000000000000 0.0000000000000000 
0.3750000000000000 0.0000000000000000 0.1406250000000000 1.0000000000000000 1.0000000000000000 0.0000000000000000 
0.5000000000000000 0.0000000000000000 0.2500000000000000 1.0000000000000000 1.0000000000000000 0.0000000000000000 
0.6250000000000000 0.0000000000000000 0.3906250000000000 1.0000000000000000 1.0000000000000000 0.0000000000000000 
0.7500000000000000 0.0000000000000000 0.5625000000000000 1.0000000000000000 1.0000000000000000 0.0000000000000000 
0.8750000000000000 0.0000000000000000 0.7656250000000000 1.0000000000000000 1.0000000000000000 0.0000000000000000 
1.0000000000000000 0.0000000000000000 1.0000000000000000 1.0000000000000000 1.0000000000000000 0.0000000000000000 
0.0000000000000000 0.1250000000000000 0.0156250000000000 1.0000000000000000 1.0000000000000000 0.0000000000000000 
0.1250000000000000 0.1250000000000000 0.0317421158933339 1.0157500615999828 1.0157477085866857 0.0000023530132971 
0.2500000000000000 0.1250000000000000 0.0806049537108674 1.0317481086044551 1.0317434074991028 0.0000047011053523 
0.3750000000000000 0.1250000000000000 0.1637485940650989 1.0479981201730650 1.0479910020166328 0.0000071181564323 
0.5000000000000000 0.1250000000000000 0.2827563406500564 1.0645040983171867 1.0644944589178595 0.0000096393993272 
0.6250000000000000 0.1250000000000000 0.4392609842761723 1.0812698342108544 1.0812578074490395 0.0000120267618149 
0.7500000000000000 0.1250000000000000 0.6349460967404618 1.0982985011433579 1.0982851403078258 0.0000133608355322 
0.8750000000000000 0.1250000000000000 0.8715473551894380 1.1155918588041787 1.1155806146424807 0.0000112441616980 
1.0000000000000000 0.1250000000000000 1.1508538976459954 1.1331484530668263 1.1331484530668263 0.0000000000000000 
0.0000000000000000 0.2500000000000000 0.0625000000000000 1.0000000000000000 1.0000000000000000 0.0000000000000000 
0.1250000000000000 0.2500000000000000 0.0806049537108674 1.0317481086044551 1.0317434074991028 0.0000047011053523 
0.2500000000000000 0.2500000000000000 0.1330618073647324 1.0645037046838004 1.0644944589178595 0.0000092457659409 
0.3750000000000000 0.2500000000000000 0.2230891691250271 1.0982988467661974 1.0982851403078258 0.0000137064583716 
0.5000000000000000 0.2500000000000000 0.3541088915833832 1.1331665060198468 1.1331484530668263 0.0000180529530205 
0.6250000000000000 0.2500000000000000 0.5297567959205567 1.1691401908798791 1.1691184461695043 0.0000217447103747 
0.7500000000000000 0.2500000000000000 0.7538939058881129 1.2062533439193692 1.2062302494209807 0.0000230944983886 
0.8750000000000000 0.2500000000000000 1.0306182142437976 1.2445384095268097 1.2445201077660952 0.0000183017607145 
1.0000000000000000 0.2500000000000000 1.3642770052307251 1.2840254166877414 1.2840254166877414 0.0000000000000000 
0.0000000000000000 0.3750000000000000 0.1406250000000000 1.0000000000000000 1.0000000000000000 0.0000000000000000 
0.1250000000000000 0.3750000000000000 0.1637485940650989 1.0479981201730650 1.0479910020166328 0.0000071181564323 
0.2500000000000000 0.3750000000000000 0.2230891691250271 1.0982988467661974 1.0982851403078258 0.0000137064583716 
0.3750000000000000 0.3750000000000000 0.3237167656943933 1.1510128242445383 1.1509929446911764 0.0000198795533619 
0.5000000000000000 0.3750000000000000 0.4711836911800706 1.2062558408424595 1.2062302494209807 0.0000255914214788 
0.6250000000000000 0.3750000000000000 0.6715629253690291 1.2641485277404245 1.2641184477534664 0.0000300799869581 
0.7500000000000000 0.3750000000000000 0.9314892834812337 1.3248158675529897 1.3247847587288657 0.0000311088241240 
0.8750000000000000 0.3750000000000000 1.2582035217481931 1.3883864290246311 1.3883625067566268 0.0000239222680043 
1.0000000000000000 0.3750000000000000 1.6595995822988858 1.4549914146182013 1.4549914146182013 0.0000000000000000 
0.0000000000000000 0.5000000000000000 0.2500000000000000 1.0000000000000000 1.0000000000000000 0.0000000000000000 
0.1250000000000000 0.5000000000000000 0.2827563406500564 1.0645040983171867 1.0644944589178595 0.0000096393993272 
0.2500000000000000 0.5000000000000000 0.3541088915833832 1.1331665060198468 1.1331484530668263 0.0000180529530205 
0.3750000000000000 0.5000000000000000 0.4711836911800706 1.2062558408424595 1.2062302494209807 0.0000255914214788 
0.5000000000000000 0.5000000000000000 0.6420127083438707 1.2840577502250650 1.2840254166877414 0.0000323335373236 
0.6250000000000000 0.5000000000000000 0.8756305560644633 1.3668753845832462 1.3668379411737963 0.0000374434094499 
0.7500000000000000 0.5000000000000000 1.1821805243772885 1.4550296893782513 1.4549914146182013 0.0000382747600500 
0.8750000000000000 0.5000000000000000 1.5730307720502914 1.5488594571751533 1.5488302986341331 0.0000291585410201 
1.0000000000000000 0.5000000000000000 2.0609015883751605 1.6487212707001282 1.6487212707001282 0.0000000000000000 
0.0000000000000000 0.6250000000000000 0.3906250000000000 1.0000000000000000 1.0000000000000000 0.0000000000000000 
0.1250000000000000 0.6250000000000000 0.4392609842761723 1.0812698342108544 1.0812578074490395 0.0000120267618149 
0.2500000000000000 0.6250000000000000 0.5297567959205567 1.1691401908798791 1.1691184461695043 0.0000217447103747 
0.3750000000000000 0.6250000000000000 0.6715629253690291 1.2641485277404245 1.2641184477534664 0.0000300799869581 
0.5000000000000000 0.6250000000000000 0.8756305560644633 1.3668753845832462 1.3668379411737963 0.0000374434094499 
0.6250000000000000 0.6250000000000000 1.1546126526654206 1.4779472964695066 1.4779041954117385 0.0000431010577682 
0.7500000000000000 0.6250000000000000 1.5230894132341972 1.5980396201533971 1.5979954499506333 0.0000441702027638 
0.8750000000000000 0.6250000000000000 1.9978208466095324 1.7278790463950604 1.7278450565271632 0.0000339898678972 
1.0000000000000000 0.6250000000000000 2.5980295345541844 1.8682459574322223 1.8682459574322223 0.0000000000000000 
0.0000000000000000 0.7500000000000000 0.5625000000000000 1.0000000000000000 1.0000000000000000 0.0000000000000000 
0.1250000000000000 0.7500000000000000 0.6349460967404618 1.0982985011433579 1.0982851403078258 0.0000133608355322 
0.2500000000000000 0.7500000000000000 0.7538939058881129 1.2062533439193692 1.2062302494209807 0.0000230944983886 
0.3750000000000000 0.7500000000000000 0.9314892834812337 1.3248158675529897 1.3247847587288657 0.0000311088241240 
0.5000000000000000 0.7500000000000000 1.1821805243772885 1.4550296893782513 1.4549914146182013 0.0000382747600500 
0.6250000000000000 0.7500000000000000 1.5230894132341972 1.5980396201533971 1.5979954499506333 0.0000441702027638 
0.7500000000000000 0.7500000000000000 1.9744364890803359 1.7551007191302936 1.7550546569602985 0.0000460621699951 
0.8750000000000000 0.7500000000000000 2.5600279416287703 1.9275871037004118 1.9275504501675447 0.0000366535328671 
1.0000000000000000 0.7500000000000000 3.3078125259573046 2.1170000166126748 2.1170000166126748 0.0000000000000000 
0.0000000000000000 0.8750000000000000 0.7656250000000000 1.0000000000000000 1.0000000000000000 0.0000000000000000 
0.1250000000000000 0.8750000000000000 0.8715473551894380 1.1155918588041787 1.1155806146424807 0.0000112441616980 
0.2500000000000000 0.8750000000000000 1.0306182142437976 1.2445384095268097 1.2445201077660952 0.0000183017607145 
0.3750000000000000 0.8750000000000000 1.2582035217481931 1.3883864290246311 1.3883625067566268 0.0000239222680043 
0.5000000000000000 0.8750000000000000 1.5730307720502914 1.5488594571751533 1.5488302986341331 0.0000291585410201 
0.6250000000000000 0.8750000000000000 1.9978208466095324 1.7278790463950604 1.7278450565271632 0.0000339898678972 
0.7500000000000000 0.8750000000000000 2.5600279416287703 1.9275871037004118 1.9275504501675447 0.0000366535328671 
0.8750000000000000 0.8750000000000000 3.2927049338019598 2.1503690697718465 2.1503379159523002 0.0000311538195463 
1.0000000000000000 0.8750000000000000 4.2355141909106573 2.3988752939670981 2.3988752939670981 0.0000000000000000 
0.0000000000000000 1.0000000000000000 1.0000000000000000 1.0000000000000000 1.0000000000000000 0.0000000000000000 
0.1250000000000000 1.0000000000000000 1.1508538976459954 1.1331484530668263 1.1331484530668263 0.0000000000000000 
0.2500000000000000 1.0000000000000000 1.3642770052307251 1.2840254166877414 1.2840254166877414 0.0000000000000000 
0.3750000000000000 1.0000000000000000 1.6595995822988858 1.4549914146182013 1.4549914146182013 0.0000000000000000 
0.5000000000000000 1.0000000000000000 2.0609015883751605 1.6487212707001282 1.6487212707001282 0.0000000000000000 
0.6250000000000000 1.0000000000000000 2.5980295345541844 1.8682459574322223 1.8682459574322223 0.0000000000000000 
0.7500000000000000 1.0000000000000000 3.3078125259573046 2.1170000166126748 2.1170000166126748 0.0000000000000000 
0.8750000000000000 1.0000000000000000 4.2355141909106573 2.3988752939670981 2.3988752939670981 0.0000000000000000 
1.0000000000000000 1.0000000000000000 5.4365636569180902 2.7182818284590451 2.7182818284590451 0.0000000000000000 
