variables ="x","y","f","u","ue" 
zone f=point i = 4,j = 4
0.0000000000000000 0.0000000000000000 0.0000000000000000 1.0000000000000000 1.0000000000000000 
0.2500000000000000 0.0000000000000000 0.0625000000000000 1.0000000000000000 1.0000000000000000 
0.5000000000000000 0.0000000000000000 0.2500000000000000 1.0000000000000000 1.0000000000000000 
0.7500000000000000 0.0000000000000000 0.5625000000000000 1.0000000000000000 1.0000000000000000 
1.0000000000000000 0.0000000000000000 1.0000000000000000 1.0000000000000000 1.0000000000000000 
0.0000000000000000 0.2500000000000000 0.0625000000000000 1.0000000000000000 1.0000000000000000 
0.2500000000000000 0.2500000000000000 0.1330618073647324 0.0000000000000000 1.0644944589178595 
0.5000000000000000 0.2500000000000000 0.3541088915833832 0.0000000000000000 1.1331484530668263 
0.7500000000000000 0.2500000000000000 0.7538939058881129 0.0000000000000000 1.2062302494209807 
1.0000000000000000 0.2500000000000000 1.3642770052307251 1.2840254166877414 1.2840254166877414 
0.0000000000000000 0.5000000000000000 0.2500000000000000 1.0000000000000000 1.0000000000000000 
0.2500000000000000 0.5000000000000000 0.3541088915833832 0.0000000000000000 1.1331484530668263 
0.5000000000000000 0.5000000000000000 0.6420127083438707 0.0000000000000000 1.2840254166877414 
0.7500000000000000 0.5000000000000000 1.1821805243772885 0.0000000000000000 1.4549914146182013 
1.0000000000000000 0.5000000000000000 2.0609015883751605 1.6487212707001282 1.6487212707001282 
0.0000000000000000 0.7500000000000000 0.5625000000000000 1.0000000000000000 1.0000000000000000 
0.2500000000000000 0.7500000000000000 0.7538939058881129 0.0000000000000000 1.2062302494209807 
0.5000000000000000 0.7500000000000000 1.1821805243772885 0.0000000000000000 1.4549914146182013 
0.7500000000000000 0.7500000000000000 1.9744364890803359 0.0000000000000000 1.7550546569602985 
1.0000000000000000 0.7500000000000000 3.3078125259573046 2.1170000166126748 2.1170000166126748 
0.0000000000000000 1.0000000000000000 1.0000000000000000 1.0000000000000000 1.0000000000000000 
0.2500000000000000 1.0000000000000000 1.3642770052307251 1.2840254166877414 1.2840254166877414 
0.5000000000000000 1.0000000000000000 2.0609015883751605 1.6487212707001282 1.6487212707001282 
0.7500000000000000 1.0000000000000000 3.3078125259573046 2.1170000166126748 2.1170000166126748 
1.0000000000000000 1.0000000000000000 5.4365636569180902 2.7182818284590451 2.7182818284590451 
