variables ="x","y","f","u","ue", "e" 
zone f=point i = 8,j = 8
0.0000000000000000 0.0000000000000000 0.0000000000000000 1.0000000000000000 1.0000000000000000 0.0000000000000000 
0.1250000000000000 0.0000000000000000 0.0156250000000000 1.0000000000000000 1.0000000000000000 0.0000000000000000 
0.2500000000000000 0.0000000000000000 0.0625000000000000 1.0000000000000000 1.0000000000000000 0.0000000000000000 
0.3750000000000000 0.0000000000000000 0.1406250000000000 1.0000000000000000 1.0000000000000000 0.0000000000000000 
0.5000000000000000 0.0000000000000000 0.2500000000000000 1.0000000000000000 1.0000000000000000 0.0000000000000000 
0.6250000000000000 0.0000000000000000 0.3906250000000000 1.0000000000000000 1.0000000000000000 0.0000000000000000 
0.7500000000000000 0.0000000000000000 0.5625000000000000 1.0000000000000000 1.0000000000000000 0.0000000000000000 
0.8750000000000000 0.0000000000000000 0.7656250000000000 1.0000000000000000 1.0000000000000000 0.0000000000000000 
1.0000000000000000 0.0000000000000000 1.0000000000000000 1.0000000000000000 1.0000000000000000 0.0000000000000000 
0.0000000000000000 0.1250000000000000 0.0156250000000000 1.0000000000000000 1.0000000000000000 0.0000000000000000 
0.1250000000000000 0.1250000000000000 0.0317421158933339 1.0157500856536184 1.0157477085866857 0.0000023770669326 
0.2500000000000000 0.1250000000000000 0.0806049537108674 1.0317481544078462 1.0317434074991028 0.0000047469087434 
0.3750000000000000 0.1250000000000000 0.1637485940650989 1.0479979221490576 1.0479910020166328 0.0000069201324249 
0.5000000000000000 0.1250000000000000 0.2827563406500564 1.0645030865720329 1.0644944589178595 0.0000086276541733 
0.6250000000000000 0.1250000000000000 0.4392609842761723 1.0812670054767497 1.0812578074490395 0.0000091980277102 
0.7500000000000000 0.1250000000000000 0.6349460967404618 1.0982929075629984 1.0982851403078258 0.0000077672551726 
0.8750000000000000 0.1250000000000000 0.8715473551894380 1.1155850051627436 1.1155806146424807 0.0000043905202629 
1.0000000000000000 0.1250000000000000 1.1508538976459954 1.1331484530668263 1.1331484530668263 0.0000000000000000 
0.0000000000000000 0.2500000000000000 0.0625000000000000 1.0000000000000000 1.0000000000000000 0.0000000000000000 
0.1250000000000000 0.2500000000000000 0.0806049537108674 1.0317481650133302 1.0317434074991028 0.0000047575142275 
0.2500000000000000 0.2500000000000000 0.1330618073647324 1.0645038091933545 1.0644944589178595 0.0000093502754950 
0.3750000000000000 0.2500000000000000 0.2230891691250271 1.0982985781612467 1.0982851403078258 0.0000134378534209 
0.5000000000000000 0.2500000000000000 0.3541088915833832 1.1331649430838846 1.1331484530668263 0.0000164900170583 
0.6250000000000000 0.2500000000000000 0.5297567959205567 1.1691356838389433 1.1691184461695043 0.0000172376694390 
0.7500000000000000 0.2500000000000000 0.7538939058881129 1.2062445862292865 1.2062302494209807 0.0000143368083059 
0.8750000000000000 0.2500000000000000 1.0306182142437976 1.2445281258005285 1.2445201077660952 0.0000080180344333 
1.0000000000000000 0.2500000000000000 1.3642770052307251 1.2840254166877414 1.2840254166877414 0.0000000000000000 
0.0000000000000000 0.3750000000000000 0.1406250000000000 1.0000000000000000 1.0000000000000000 0.0000000000000000 
0.1250000000000000 0.3750000000000000 0.1637485940650989 1.0479979193731030 1.0479910020166328 0.0000069173564703 
0.2500000000000000 0.3750000000000000 0.2230891691250271 1.0982985580882465 1.0982851403078258 0.0000134177804207 
0.3750000000000000 0.3750000000000000 0.3237167656943933 1.1510119647110950 1.1509929446911764 0.0000190200199186 
0.5000000000000000 0.3750000000000000 0.4711836911800706 1.2062532741642835 1.2062302494209807 0.0000230247433028 
0.6250000000000000 0.3750000000000000 0.6715629253690291 1.2641421874143290 1.2641184477534664 0.0000237396608627 
0.7500000000000000 0.3750000000000000 0.9314892834812337 1.3248042807994895 1.3247847587288657 0.0000195220706238 
0.8750000000000000 0.3750000000000000 1.2582035217481931 1.3883733384115486 1.3883625067566268 0.0000108316549219 
1.0000000000000000 0.3750000000000000 1.6595995822988858 1.4549914146182013 1.4549914146182013 0.0000000000000000 
0.0000000000000000 0.5000000000000000 0.2500000000000000 1.0000000000000000 1.0000000000000000 0.0000000000000000 
0.1250000000000000 0.5000000000000000 0.2827563406500564 1.0645030397179007 1.0644944589178595 0.0000085808000412 
0.2500000000000000 0.5000000000000000 0.3541088915833832 1.1331648950186000 1.1331484530668263 0.0000164419517736 
0.3750000000000000 0.5000000000000000 0.4711836911800706 1.2062532850768306 1.2062302494209807 0.0000230356558499 
0.5000000000000000 0.5000000000000000 0.6420127083438707 1.2840530139113808 1.2840254166877414 0.0000275972236394 
0.6250000000000000 0.5000000000000000 0.8756305560644633 1.3668661360472165 1.3668379411737963 0.0000281948734202 
0.7500000000000000 0.5000000000000000 1.1821805243772885 1.4550144700921452 1.4549914146182013 0.0000230554739440 
0.8750000000000000 0.5000000000000000 1.5730307720502914 1.5488430712031813 1.5488302986341331 0.0000127725690482 
1.0000000000000000 0.5000000000000000 2.0609015883751605 1.6487212707001282 1.6487212707001282 0.0000000000000000 
0.0000000000000000 0.6250000000000000 0.3906250000000000 1.0000000000000000 1.0000000000000000 0.0000000000000000 
0.1250000000000000 0.6250000000000000 0.4392609842761723 1.0812668933820653 1.0812578074490395 0.0000090859330257 
0.2500000000000000 0.6250000000000000 0.5297567959205567 1.1691355539787420 1.1691184461695043 0.0000171078092377 
0.3750000000000000 0.6250000000000000 0.6715629253690291 1.2641421041772998 1.2641184477534664 0.0000236564238334 
0.5000000000000000 0.6250000000000000 0.8756305560644633 1.3668660081581701 1.3668379411737963 0.0000280669843737 
0.6250000000000000 0.6250000000000000 1.1546126526654206 1.4779325660994265 1.4779041954117385 0.0000283706876880 
0.7500000000000000 0.6250000000000000 1.5230894132341972 1.5980182784938948 1.5979954499506333 0.0000228285432615 
0.8750000000000000 0.6250000000000000 1.9978208466095324 1.7278574249622274 1.7278450565271632 0.0000123684350641 
1.0000000000000000 0.6250000000000000 2.5980295345541844 1.8682459574322223 1.8682459574322223 0.0000000000000000 
0.0000000000000000 0.7500000000000000 0.5625000000000000 1.0000000000000000 1.0000000000000000 0.0000000000000000 
0.1250000000000000 0.7500000000000000 0.6349460967404618 1.0982926372579365 1.0982851403078258 0.0000074969501107 
0.2500000000000000 0.7500000000000000 0.7538939058881129 1.2062441628206249 1.2062302494209807 0.0000139133996442 
0.3750000000000000 0.7500000000000000 0.9314892834812337 1.3248037891727618 1.3247847587288657 0.0000190304438961 
0.5000000000000000 0.7500000000000000 1.1821805243772885 1.4550138116230023 1.4549914146182013 0.0000223970048010 
0.6250000000000000 0.7500000000000000 1.5230894132341972 1.5980176772107313 1.5979954499506333 0.0000222272600980 
0.7500000000000000 0.7500000000000000 1.9744364890803359 1.7550722238048668 1.7550546569602985 0.0000175668445683 
0.8750000000000000 0.7500000000000000 2.5600279416287703 1.9275599305374596 1.9275504501675447 0.0000094803699149 
1.0000000000000000 0.7500000000000000 3.3078125259573046 2.1170000166126748 2.1170000166126748 0.0000000000000000 
0.0000000000000000 0.8750000000000000 0.7656250000000000 1.0000000000000000 1.0000000000000000 0.0000000000000000 
0.1250000000000000 0.8750000000000000 0.8715473551894380 1.1155847006972410 1.1155806146424807 0.0000040860547603 
0.2500000000000000 0.8750000000000000 1.0306182142437976 1.2445276235644473 1.2445201077660952 0.0000075157983521 
0.3750000000000000 0.8750000000000000 1.2582035217481931 1.3883727169187241 1.3883625067566268 0.0000102101620973 
0.5000000000000000 0.8750000000000000 1.5730307720502914 1.5488422095720982 1.5488302986341331 0.0000119109379650 
0.6250000000000000 0.8750000000000000 1.9978208466095324 1.7278566556950981 1.7278450565271632 0.0000115991679348 
0.7500000000000000 0.8750000000000000 2.5600279416287703 1.9275595933943186 1.9275504501675447 0.0000091432267739 
0.8750000000000000 0.8750000000000000 3.2927049338019598 2.1503430064384803 2.1503379159523002 0.0000050904861801 
1.0000000000000000 0.8750000000000000 4.2355141909106573 2.3988752939670981 2.3988752939670981 0.0000000000000000 
0.0000000000000000 1.0000000000000000 1.0000000000000000 1.0000000000000000 1.0000000000000000 0.0000000000000000 
0.1250000000000000 1.0000000000000000 1.1508538976459954 1.1331484530668263 1.1331484530668263 0.0000000000000000 
0.2500000000000000 1.0000000000000000 1.3642770052307251 1.2840254166877414 1.2840254166877414 0.0000000000000000 
0.3750000000000000 1.0000000000000000 1.6595995822988858 1.4549914146182013 1.4549914146182013 0.0000000000000000 
0.5000000000000000 1.0000000000000000 2.0609015883751605 1.6487212707001282 1.6487212707001282 0.0000000000000000 
0.6250000000000000 1.0000000000000000 2.5980295345541844 1.8682459574322223 1.8682459574322223 0.0000000000000000 
0.7500000000000000 1.0000000000000000 3.3078125259573046 2.1170000166126748 2.1170000166126748 0.0000000000000000 
0.8750000000000000 1.0000000000000000 4.2355141909106573 2.3988752939670981 2.3988752939670981 0.0000000000000000 
1.0000000000000000 1.0000000000000000 5.4365636569180902 2.7182818284590451 2.7182818284590451 0.0000000000000000 
