variables ="x","y","f","u","ue" 
zone f=point i = 8,j = 8
0.0000000000000000 0.0000000000000000 0.0000000000000000 1.0000000000000000 1.0000000000000000 
0.1250000000000000 0.0000000000000000 0.0156250000000000 1.0000000000000000 1.0000000000000000 
0.2500000000000000 0.0000000000000000 0.0625000000000000 1.0000000000000000 1.0000000000000000 
0.3750000000000000 0.0000000000000000 0.1406250000000000 1.0000000000000000 1.0000000000000000 
0.5000000000000000 0.0000000000000000 0.2500000000000000 1.0000000000000000 1.0000000000000000 
0.6250000000000000 0.0000000000000000 0.3906250000000000 1.0000000000000000 1.0000000000000000 
0.7500000000000000 0.0000000000000000 0.5625000000000000 1.0000000000000000 1.0000000000000000 
0.8750000000000000 0.0000000000000000 0.7656250000000000 1.0000000000000000 1.0000000000000000 
1.0000000000000000 0.0000000000000000 1.0000000000000000 1.0000000000000000 1.0000000000000000 
0.0000000000000000 0.1250000000000000 0.0156250000000000 1.0000000000000000 1.0000000000000000 
0.1250000000000000 0.1250000000000000 0.0317421158933339 0.0000000000000000 1.0157477085866857 
0.2500000000000000 0.1250000000000000 0.0806049537108674 0.0000000000000000 1.0317434074991028 
0.3750000000000000 0.1250000000000000 0.1637485940650989 0.0000000000000000 1.0479910020166328 
0.5000000000000000 0.1250000000000000 0.2827563406500564 0.0000000000000000 1.0644944589178595 
0.6250000000000000 0.1250000000000000 0.4392609842761723 0.0000000000000000 1.0812578074490395 
0.7500000000000000 0.1250000000000000 0.6349460967404618 0.0000000000000000 1.0982851403078258 
0.8750000000000000 0.1250000000000000 0.8715473551894380 0.0000000000000000 1.1155806146424807 
1.0000000000000000 0.1250000000000000 1.1508538976459954 1.1331484530668263 1.1331484530668263 
0.0000000000000000 0.2500000000000000 0.0625000000000000 1.0000000000000000 1.0000000000000000 
0.1250000000000000 0.2500000000000000 0.0806049537108674 0.0000000000000000 1.0317434074991028 
0.2500000000000000 0.2500000000000000 0.1330618073647324 0.0000000000000000 1.0644944589178595 
0.3750000000000000 0.2500000000000000 0.2230891691250271 0.0000000000000000 1.0982851403078258 
0.5000000000000000 0.2500000000000000 0.3541088915833832 0.0000000000000000 1.1331484530668263 
0.6250000000000000 0.2500000000000000 0.5297567959205567 0.0000000000000000 1.1691184461695043 
0.7500000000000000 0.2500000000000000 0.7538939058881129 0.0000000000000000 1.2062302494209807 
0.8750000000000000 0.2500000000000000 1.0306182142437976 0.0000000000000000 1.2445201077660952 
1.0000000000000000 0.2500000000000000 1.3642770052307251 1.2840254166877414 1.2840254166877414 
0.0000000000000000 0.3750000000000000 0.1406250000000000 1.0000000000000000 1.0000000000000000 
0.1250000000000000 0.3750000000000000 0.1637485940650989 0.0000000000000000 1.0479910020166328 
0.2500000000000000 0.3750000000000000 0.2230891691250271 0.0000000000000000 1.0982851403078258 
0.3750000000000000 0.3750000000000000 0.3237167656943933 0.0000000000000000 1.1509929446911764 
0.5000000000000000 0.3750000000000000 0.4711836911800706 0.0000000000000000 1.2062302494209807 
0.6250000000000000 0.3750000000000000 0.6715629253690291 0.0000000000000000 1.2641184477534664 
0.7500000000000000 0.3750000000000000 0.9314892834812337 0.0000000000000000 1.3247847587288657 
0.8750000000000000 0.3750000000000000 1.2582035217481931 0.0000000000000000 1.3883625067566268 
1.0000000000000000 0.3750000000000000 1.6595995822988858 1.4549914146182013 1.4549914146182013 
0.0000000000000000 0.5000000000000000 0.2500000000000000 1.0000000000000000 1.0000000000000000 
0.1250000000000000 0.5000000000000000 0.2827563406500564 0.0000000000000000 1.0644944589178595 
0.2500000000000000 0.5000000000000000 0.3541088915833832 0.0000000000000000 1.1331484530668263 
0.3750000000000000 0.5000000000000000 0.4711836911800706 0.0000000000000000 1.2062302494209807 
0.5000000000000000 0.5000000000000000 0.6420127083438707 0.0000000000000000 1.2840254166877414 
0.6250000000000000 0.5000000000000000 0.8756305560644633 0.0000000000000000 1.3668379411737963 
0.7500000000000000 0.5000000000000000 1.1821805243772885 0.0000000000000000 1.4549914146182013 
0.8750000000000000 0.5000000000000000 1.5730307720502914 0.0000000000000000 1.5488302986341331 
1.0000000000000000 0.5000000000000000 2.0609015883751605 1.6487212707001282 1.6487212707001282 
0.0000000000000000 0.6250000000000000 0.3906250000000000 1.0000000000000000 1.0000000000000000 
0.1250000000000000 0.6250000000000000 0.4392609842761723 0.0000000000000000 1.0812578074490395 
0.2500000000000000 0.6250000000000000 0.5297567959205567 0.0000000000000000 1.1691184461695043 
0.3750000000000000 0.6250000000000000 0.6715629253690291 0.0000000000000000 1.2641184477534664 
0.5000000000000000 0.6250000000000000 0.8756305560644633 0.0000000000000000 1.3668379411737963 
0.6250000000000000 0.6250000000000000 1.1546126526654206 0.0000000000000000 1.4779041954117385 
0.7500000000000000 0.6250000000000000 1.5230894132341972 0.0000000000000000 1.5979954499506333 
0.8750000000000000 0.6250000000000000 1.9978208466095324 0.0000000000000000 1.7278450565271632 
1.0000000000000000 0.6250000000000000 2.5980295345541844 1.8682459574322223 1.8682459574322223 
0.0000000000000000 0.7500000000000000 0.5625000000000000 1.0000000000000000 1.0000000000000000 
0.1250000000000000 0.7500000000000000 0.6349460967404618 0.0000000000000000 1.0982851403078258 
0.2500000000000000 0.7500000000000000 0.7538939058881129 0.0000000000000000 1.2062302494209807 
0.3750000000000000 0.7500000000000000 0.9314892834812337 0.0000000000000000 1.3247847587288657 
0.5000000000000000 0.7500000000000000 1.1821805243772885 0.0000000000000000 1.4549914146182013 
0.6250000000000000 0.7500000000000000 1.5230894132341972 0.0000000000000000 1.5979954499506333 
0.7500000000000000 0.7500000000000000 1.9744364890803359 0.0000000000000000 1.7550546569602985 
0.8750000000000000 0.7500000000000000 2.5600279416287703 0.0000000000000000 1.9275504501675447 
1.0000000000000000 0.7500000000000000 3.3078125259573046 2.1170000166126748 2.1170000166126748 
0.0000000000000000 0.8750000000000000 0.7656250000000000 1.0000000000000000 1.0000000000000000 
0.1250000000000000 0.8750000000000000 0.8715473551894380 0.0000000000000000 1.1155806146424807 
0.2500000000000000 0.8750000000000000 1.0306182142437976 0.0000000000000000 1.2445201077660952 
0.3750000000000000 0.8750000000000000 1.2582035217481931 0.0000000000000000 1.3883625067566268 
0.5000000000000000 0.8750000000000000 1.5730307720502914 0.0000000000000000 1.5488302986341331 
0.6250000000000000 0.8750000000000000 1.9978208466095324 0.0000000000000000 1.7278450565271632 
0.7500000000000000 0.8750000000000000 2.5600279416287703 0.0000000000000000 1.9275504501675447 
0.8750000000000000 0.8750000000000000 3.2927049338019598 0.0000000000000000 2.1503379159523002 
1.0000000000000000 0.8750000000000000 4.2355141909106573 2.3988752939670981 2.3988752939670981 
0.0000000000000000 1.0000000000000000 1.0000000000000000 1.0000000000000000 1.0000000000000000 
0.1250000000000000 1.0000000000000000 1.1508538976459954 1.1331484530668263 1.1331484530668263 
0.2500000000000000 1.0000000000000000 1.3642770052307251 1.2840254166877414 1.2840254166877414 
0.3750000000000000 1.0000000000000000 1.6595995822988858 1.4549914146182013 1.4549914146182013 
0.5000000000000000 1.0000000000000000 2.0609015883751605 1.6487212707001282 1.6487212707001282 
0.6250000000000000 1.0000000000000000 2.5980295345541844 1.8682459574322223 1.8682459574322223 
0.7500000000000000 1.0000000000000000 3.3078125259573046 2.1170000166126748 2.1170000166126748 
0.8750000000000000 1.0000000000000000 4.2355141909106573 2.3988752939670981 2.3988752939670981 
1.0000000000000000 1.0000000000000000 5.4365636569180902 2.7182818284590451 2.7182818284590451 
