variables ="x","y","f","u","ue" 
zone f=point i = 33,j = 33
0.0000000000000000 0.0000000000000000 -0.0000000000000000 0.0000000000000000 0.0000000000000000 
0.0312500000000000 0.0000000000000000 -0.0000000000000000 0.0000000000000000 0.0000000000000000 
0.0625000000000000 0.0000000000000000 -0.0000000000000000 0.0000000000000000 0.0000000000000000 
0.0937500000000000 0.0000000000000000 0.0000000000000000 0.0000000000000000 0.0000000000000000 
0.1250000000000000 0.0000000000000000 0.0000000000000000 0.0000000000000000 0.0000000000000000 
0.1562500000000000 0.0000000000000000 -0.0000000000000000 0.0000000000000000 0.0000000000000000 
0.1875000000000000 0.0000000000000000 -0.0000000000000000 0.0000000000000000 0.0000000000000000 
0.2187500000000000 0.0000000000000000 0.0000000000000000 0.0000000000000000 0.0000000000000000 
0.2500000000000000 0.0000000000000000 0.0000000000000000 0.0000000000000000 0.0000000000000000 
0.2812500000000000 0.0000000000000000 -0.0000000000000000 0.0000000000000000 0.0000000000000000 
0.3125000000000000 0.0000000000000000 -0.0000000000000000 0.0000000000000000 0.0000000000000000 
0.3437500000000000 0.0000000000000000 0.0000000000000000 0.0000000000000000 0.0000000000000000 
0.3750000000000000 0.0000000000000000 0.0000000000000000 0.0000000000000000 0.0000000000000000 
0.4062500000000000 0.0000000000000000 -0.0000000000000000 0.0000000000000000 0.0000000000000000 
0.4375000000000000 0.0000000000000000 -0.0000000000000000 0.0000000000000000 0.0000000000000000 
0.4687500000000000 0.0000000000000000 0.0000000000000000 0.0000000000000000 0.0000000000000000 
0.5000000000000000 0.0000000000000000 0.0000000000000000 0.0000000000000000 0.0000000000000000 
0.5312500000000000 0.0000000000000000 0.0000000000000000 0.0000000000000000 0.0000000000000000 
0.5625000000000000 0.0000000000000000 0.0000000000000000 0.0000000000000000 0.0000000000000000 
0.5937500000000000 0.0000000000000000 0.0000000000000000 -0.0000000000000000 -0.0000000000000000 
0.6250000000000000 0.0000000000000000 0.0000000000000000 -0.0000000000000000 -0.0000000000000000 
0.6562500000000000 0.0000000000000000 0.0000000000000000 0.0000000000000000 0.0000000000000000 
0.6875000000000000 0.0000000000000000 0.0000000000000000 0.0000000000000000 0.0000000000000000 
0.7187500000000000 0.0000000000000000 0.0000000000000000 -0.0000000000000000 -0.0000000000000000 
0.7500000000000000 0.0000000000000000 0.0000000000000000 -0.0000000000000000 -0.0000000000000000 
0.7812500000000000 0.0000000000000000 0.0000000000000000 0.0000000000000000 0.0000000000000000 
0.8125000000000000 0.0000000000000000 0.0000000000000000 -0.0000000000000000 -0.0000000000000000 
0.8437500000000000 0.0000000000000000 0.0000000000000000 -0.0000000000000000 -0.0000000000000000 
0.8750000000000000 0.0000000000000000 0.0000000000000000 -0.0000000000000000 -0.0000000000000000 
0.9062500000000000 0.0000000000000000 0.0000000000000000 0.0000000000000000 0.0000000000000000 
0.9375000000000000 0.0000000000000000 0.0000000000000000 0.0000000000000000 0.0000000000000000 
0.9687500000000000 0.0000000000000000 0.0000000000000000 -0.0000000000000000 -0.0000000000000000 
1.0000000000000000 0.0000000000000000 0.0000000000000000 -0.0000000000000000 -0.0000000000000000 
0.0000000000000000 0.0312500000000000 -0.0000000000000000 0.0000000000000000 0.0000000000000000 
0.0312500000000000 0.0312500000000000 -22.7443244059370500 0.0000000000000000 0.0419664837443566 
0.0625000000000000 0.0312500000000000 -5.8947463001524847 0.0000000000000000 0.0746578340503426 
0.0937500000000000 0.0312500000000000 11.1813636001351373 0.0000000000000000 0.1044801256623696 
0.1250000000000000 0.0312500000000000 -10.8920709121150185 0.0000000000000000 0.1379496896414715 
0.1562500000000000 0.0312500000000000 -32.5469292475563421 0.0000000000000000 0.1661179244107289 
0.1875000000000000 0.0312500000000000 -14.2311764645767518 0.0000000000000000 0.1802399555017370 
0.2187500000000000 0.0312500000000000 4.6314724490008299 0.0000000000000000 0.1874354661825449 
0.2500000000000000 0.0312500000000000 -15.4037144062425462 0.0000000000000000 0.1950903220161282 
0.2812500000000000 0.0312500000000000 -34.8469451553566003 0.0000000000000000 0.1952479661825449 
0.3125000000000000 0.0312500000000000 -14.2311764645767571 0.0000000000000000 0.1802399555017370 
0.3437500000000000 0.0312500000000000 6.9314883568010845 0.0000000000000000 0.1583054244107289 
0.3750000000000000 0.0312500000000000 -10.8920709121150114 0.0000000000000000 0.1379496896414715 
0.4062500000000000 0.0312500000000000 -28.2970540042222964 0.0000000000000000 0.1122926256623696 
0.4375000000000000 0.0312500000000000 -5.8947463001525007 0.0000000000000000 0.0746578340503426 
0.4687500000000000 0.0312500000000000 16.7340931984203749 0.0000000000000000 0.0341539837443567 
0.5000000000000000 0.0312500000000000 0.0000000000000175 0.0000000000000000 0.0000000000000000 
0.5312500000000000 0.0312500000000000 -16.7340931984203820 0.0000000000000000 -0.0341539837443566 
0.5625000000000000 0.0312500000000000 5.8947463001524589 0.0000000000000000 -0.0746578340503426 
0.5937500000000000 0.0312500000000000 28.2970540042222929 0.0000000000000000 -0.1122926256623696 
0.6250000000000000 0.0312500000000000 10.8920709121150487 0.0000000000000000 -0.1379496896414715 
0.6562500000000000 0.0312500000000000 -6.9314883568010881 0.0000000000000000 -0.1583054244107289 
0.6875000000000000 0.0312500000000000 14.2311764645766470 0.0000000000000000 -0.1802399555017369 
0.7187500000000000 0.0312500000000000 34.8469451553566003 0.0000000000000000 -0.1952479661825448 
0.7500000000000000 0.0312500000000000 15.4037144062425835 0.0000000000000000 -0.1950903220161282 
0.7812500000000000 0.0312500000000000 -4.6314724490008299 0.0000000000000000 -0.1874354661825449 
0.8125000000000000 0.0312500000000000 14.2311764645767820 0.0000000000000000 -0.1802399555017369 
0.8437500000000000 0.0312500000000000 32.5469292475563492 0.0000000000000000 -0.1661179244107289 
0.8750000000000000 0.0312500000000000 10.8920709121150594 0.0000000000000000 -0.1379496896414715 
0.9062500000000000 0.0312500000000000 -11.1813636001351373 0.0000000000000000 -0.1044801256623696 
0.9375000000000000 0.0312500000000000 5.8947463001523852 0.0000000000000000 -0.0746578340503427 
0.9687500000000000 0.0312500000000000 22.7443244059370571 0.0000000000000000 -0.0419664837443567 
1.0000000000000000 0.0312500000000000 0.0000000000000425 -0.0000000000000001 -0.0000000000000001 
0.0000000000000000 0.0625000000000000 -0.0000000000000000 0.0000000000000000 0.0000000000000000 
0.0312500000000000 0.0625000000000000 -5.8947463001524847 0.0000000000000000 0.0746578340503426 
0.0625000000000000 0.0625000000000000 -11.5629608058019162 0.0000000000000000 0.1464466094067262 
0.0937500000000000 0.0625000000000000 -16.7868172122675041 0.0000000000000000 0.2126075236918141 
0.1250000000000000 0.0625000000000000 -21.3655656474212101 0.0000000000000000 0.2705980500730985 
0.1562500000000000 0.0625000000000000 -25.1232473766917757 0.0000000000000000 0.3181896451432085 
0.1875000000000000 0.0625000000000000 -27.9154567985555175 0.0000000000000000 0.3535533905932738 
0.2187500000000000 0.0625000000000000 -29.6348908708193015 0.0000000000000000 0.3753302775178652 
0.2500000000000000 0.0625000000000000 -30.2154727063557758 0.0000000000000000 0.3826834323650898 
0.2812500000000000 0.0625000000000000 -29.6348908708193086 0.0000000000000000 0.3753302775178652 
0.3125000000000000 0.0625000000000000 -27.9154567985555175 0.0000000000000000 0.3535533905932738 
0.3437500000000000 0.0625000000000000 -25.1232473766917757 0.0000000000000000 0.3181896451432085 
0.3750000000000000 0.0625000000000000 -21.3655656474212137 0.0000000000000000 0.2705980500730985 
0.4062500000000000 0.0625000000000000 -16.7868172122675112 0.0000000000000000 0.2126075236918141 
0.4375000000000000 0.0625000000000000 -11.5629608058019198 0.0000000000000000 0.1464466094067263 
0.4687500000000000 0.0625000000000000 -5.8947463001524900 0.0000000000000000 0.0746578340503427 
0.5000000000000000 0.0625000000000000 -0.0000000000000037 0.0000000000000000 0.0000000000000000 
0.5312500000000000 0.0625000000000000 5.8947463001524829 0.0000000000000000 -0.0746578340503426 
0.5625000000000000 0.0625000000000000 11.5629608058019127 0.0000000000000000 -0.1464466094067262 
0.5937500000000000 0.0625000000000000 16.7868172122675041 0.0000000000000000 -0.2126075236918140 
0.6250000000000000 0.0625000000000000 21.3655656474212101 0.0000000000000000 -0.2705980500730985 
0.6562500000000000 0.0625000000000000 25.1232473766917686 0.0000000000000000 -0.3181896451432085 
0.6875000000000000 0.0625000000000000 27.9154567985555104 0.0000000000000000 -0.3535533905932737 
0.7187500000000000 0.0625000000000000 29.6348908708193051 0.0000000000000000 -0.3753302775178652 
0.7500000000000000 0.0625000000000000 30.2154727063557758 0.0000000000000000 -0.3826834323650898 
0.7812500000000000 0.0625000000000000 29.6348908708193015 0.0000000000000000 -0.3753302775178652 
0.8125000000000000 0.0625000000000000 27.9154567985555104 0.0000000000000000 -0.3535533905932737 
0.8437500000000000 0.0625000000000000 25.1232473766917828 0.0000000000000000 -0.3181896451432086 
0.8750000000000000 0.0625000000000000 21.3655656474212137 0.0000000000000000 -0.2705980500730986 
0.9062500000000000 0.0625000000000000 16.7868172122675041 0.0000000000000000 -0.2126075236918141 
0.9375000000000000 0.0625000000000000 11.5629608058019340 0.0000000000000000 -0.1464466094067265 
0.9687500000000000 0.0625000000000000 5.8947463001524989 0.0000000000000000 -0.0746578340503428 
1.0000000000000000 0.0625000000000000 0.0000000000000074 -0.0000000000000001 -0.0000000000000001 
0.0000000000000000 0.0937500000000000 0.0000000000000000 0.0000000000000000 0.0000000000000000 
0.0312500000000000 0.0937500000000000 11.1813636001351373 0.0000000000000000 0.1044801256623696 
0.0625000000000000 0.0937500000000000 -16.7868172122675041 0.0000000000000000 0.2126075236918141 
0.0937500000000000 0.0937500000000000 -44.1098900533582565 0.0000000000000000 0.3125645338174551 
0.1250000000000000 0.0937500000000000 -31.0179936768442523 0.0000000000000000 0.3928474791935510 
0.1562500000000000 0.0937500000000000 -16.7340931984203749 0.0000000000000000 0.4580335162556433 
0.1875000000000000 0.0937500000000000 -40.5269617829343218 0.0000000000000000 0.5132799671593367 
0.2187500000000000 0.0937500000000000 -62.7624019539121178 0.0000000000000000 0.5488013567758185 
0.2500000000000000 0.0937500000000000 -43.8660673353960533 0.0000000000000000 0.5555702330196022 
0.2812500000000000 0.0937500000000000 -23.2839843495546859 0.0000000000000000 0.5409888567758185 
0.3125000000000000 0.0937500000000000 -40.5269617829343147 0.0000000000000000 0.5132799671593367 
0.3437500000000000 0.0937500000000000 -56.2125108027778211 0.0000000000000000 0.4658460162556434 
0.3750000000000000 0.0937500000000000 -31.0179936768442666 0.0000000000000000 0.3928474791935511 
0.4062500000000000 0.0937500000000000 -4.6314724490008246 0.0000000000000000 0.3047520338174551 
0.4375000000000000 0.0937500000000000 -16.7868172122674935 0.0000000000000000 0.2126075236918142 
0.4687500000000000 0.0937500000000000 -28.2970540042223107 0.0000000000000000 0.1122926256623698 
0.5000000000000000 0.0937500000000000 -0.0000000000000247 0.0000000000000000 0.0000000000000001 
0.5312500000000000 0.0937500000000000 28.2970540042223000 0.0000000000000000 -0.1122926256623697 
0.5625000000000000 0.0937500000000000 16.7868172122675219 0.0000000000000000 -0.2126075236918140 
0.5937500000000000 0.0937500000000000 4.6314724490008174 0.0000000000000000 -0.3047520338174549 
0.6250000000000000 0.0937500000000000 31.0179936768442239 0.0000000000000000 -0.3928474791935510 
0.6562500000000000 0.0937500000000000 56.2125108027778069 0.0000000000000000 -0.4658460162556433 
0.6875000000000000 0.0937500000000000 40.5269617829344213 0.0000000000000000 -0.5132799671593365 
0.7187500000000000 0.0937500000000000 23.2839843495546788 0.0000000000000000 -0.5409888567758185 
0.7500000000000000 0.0937500000000000 43.8660673353960178 0.0000000000000000 -0.5555702330196022 
0.7812500000000000 0.0937500000000000 62.7624019539121178 0.0000000000000000 -0.5488013567758185 
0.8125000000000000 0.0937500000000000 40.5269617829342863 0.0000000000000000 -0.5132799671593367 
0.8437500000000000 0.0937500000000000 16.7340931984203891 0.0000000000000000 -0.4580335162556435 
0.8750000000000000 0.0937500000000000 31.0179936768442204 0.0000000000000000 -0.3928474791935511 
0.9062500000000000 0.0937500000000000 44.1098900533582565 0.0000000000000000 -0.3125645338174551 
0.9375000000000000 0.0937500000000000 16.7868172122676391 0.0000000000000000 -0.2126075236918145 
0.9687500000000000 0.0937500000000000 -11.1813636001351160 0.0000000000000000 -0.1044801256623699 
1.0000000000000000 0.0937500000000000 -0.0000000000000279 -0.0000000000000001 -0.0000000000000001 
0.0000000000000000 0.1250000000000000 0.0000000000000000 0.0000000000000000 0.0000000000000000 
0.0312500000000000 0.1250000000000000 -10.8920709121150185 0.0000000000000000 0.1379496896414715 
0.0625000000000000 0.1250000000000000 -21.3655656474212101 0.0000000000000000 0.2705980500730985 
0.0937500000000000 0.1250000000000000 -31.0179936768442523 0.0000000000000000 0.3928474791935510 
0.1250000000000000 0.1250000000000000 -39.4784176043574249 0.0000000000000000 0.4999999999999999 
0.1562500000000000 0.1250000000000000 -46.4217080830867985 0.0000000000000000 0.5879378012096793 
0.1875000000000000 0.1250000000000000 -51.5810383537769823 0.0000000000000000 0.6532814824381882 
0.2187500000000000 0.1250000000000000 -54.7581382475110772 0.0000000000000000 0.6935199226610737 
0.2500000000000000 0.1250000000000000 -55.8309135971110280 0.0000000000000000 0.7071067811865475 
0.2812500000000000 0.1250000000000000 -54.7581382475110630 0.0000000000000000 0.6935199226610737 
0.3125000000000000 0.1250000000000000 -51.5810383537769823 0.0000000000000000 0.6532814824381882 
0.3437500000000000 0.1250000000000000 -46.4217080830868269 0.0000000000000000 0.5879378012096794 
0.3750000000000000 0.1250000000000000 -39.4784176043574320 0.0000000000000000 0.5000000000000000 
0.4062500000000000 0.1250000000000000 -31.0179936768442452 0.0000000000000000 0.3928474791935510 
0.4375000000000000 0.1250000000000000 -21.3655656474212172 0.0000000000000000 0.2705980500730986 
0.4687500000000000 0.1250000000000000 -10.8920709121150487 0.0000000000000000 0.1379496896414717 
0.5000000000000000 0.1250000000000000 -0.0000000000000068 0.0000000000000000 0.0000000000000001 
0.5312500000000000 0.1250000000000000 10.8920709121150345 0.0000000000000000 -0.1379496896414716 
0.5625000000000000 0.1250000000000000 21.3655656474212030 0.0000000000000000 -0.2705980500730984 
0.5937500000000000 0.1250000000000000 31.0179936768442346 0.0000000000000000 -0.3928474791935508 
0.6250000000000000 0.1250000000000000 39.4784176043574249 0.0000000000000000 -0.4999999999999999 
0.6562500000000000 0.1250000000000000 46.4217080830868127 0.0000000000000000 -0.5879378012096793 
0.6875000000000000 0.1250000000000000 51.5810383537769681 0.0000000000000000 -0.6532814824381881 
0.7187500000000000 0.1250000000000000 54.7581382475110559 0.0000000000000000 -0.6935199226610735 
0.7500000000000000 0.1250000000000000 55.8309135971110280 0.0000000000000000 -0.7071067811865475 
0.7812500000000000 0.1250000000000000 54.7581382475110772 0.0000000000000000 -0.6935199226610737 
0.8125000000000000 0.1250000000000000 51.5810383537769681 0.0000000000000000 -0.6532814824381881 
0.8437500000000000 0.1250000000000000 46.4217080830868127 0.0000000000000000 -0.5879378012096794 
0.8750000000000000 0.1250000000000000 39.4784176043574320 0.0000000000000000 -0.5000000000000001 
0.9062500000000000 0.1250000000000000 31.0179936768442523 0.0000000000000000 -0.3928474791935510 
0.9375000000000000 0.1250000000000000 21.3655656474212421 0.0000000000000000 -0.2705980500730989 
0.9687500000000000 0.1250000000000000 10.8920709121150434 0.0000000000000000 -0.1379496896414718 
1.0000000000000000 0.1250000000000000 0.0000000000000137 -0.0000000000000002 -0.0000000000000002 
0.0000000000000000 0.1562500000000000 -0.0000000000000000 0.0000000000000000 0.0000000000000000 
0.0312500000000000 0.1562500000000000 -32.5469292475563421 0.0000000000000000 0.1661179244107289 
0.0625000000000000 0.1562500000000000 -25.1232473766917792 0.0000000000000000 0.3181896451432085 
0.0937500000000000 0.1562500000000000 -16.7340931984203749 0.0000000000000000 0.4580335162556433 
0.1250000000000000 0.1562500000000000 -46.4217080830867985 0.0000000000000000 0.5879378012096793 
0.1562500000000000 0.1562500000000000 -74.3253627597140394 0.0000000000000000 0.6952479661825449 
0.1875000000000000 0.1562500000000000 -60.6528845476635681 0.0000000000000000 0.7681777567114163 
0.2187500000000000 0.1562500000000000 -44.6495499969758995 0.0000000000000000 0.8115869068489171 
0.2500000000000000 0.1562500000000000 -65.6502091596260868 0.0000000000000000 0.8314696123025452 
0.2812500000000000 0.1562500000000000 -84.1279676013333244 0.0000000000000000 0.8193994068489171 
0.3125000000000000 0.1562500000000000 -60.6528845476635752 0.0000000000000000 0.7681777567114163 
0.3437500000000000 0.1562500000000000 -34.8469451553566145 0.0000000000000000 0.6874354661825450 
0.3750000000000000 0.1562500000000000 -46.4217080830867985 0.0000000000000000 0.5879378012096794 
0.4062500000000000 0.1562500000000000 -56.2125108027778069 0.0000000000000000 0.4658460162556433 
0.4375000000000000 0.1562500000000000 -25.1232473766917970 0.0000000000000000 0.3181896451432086 
0.4687500000000000 0.1562500000000000 6.9314883568010650 0.0000000000000000 0.1583054244107292 
0.5000000000000000 0.1562500000000000 0.0000000000000113 0.0000000000000000 0.0000000000000001 
0.5312500000000000 0.1562500000000000 -6.9314883568010810 0.0000000000000000 -0.1583054244107290 
0.5625000000000000 0.1562500000000000 25.1232473766917437 0.0000000000000000 -0.3181896451432084 
0.5937500000000000 0.1562500000000000 56.2125108027777998 0.0000000000000000 -0.4658460162556431 
0.6250000000000000 0.1562500000000000 46.4217080830868269 0.0000000000000000 -0.5879378012096793 
0.6562500000000000 0.1562500000000000 34.8469451553566003 0.0000000000000000 -0.6874354661825449 
0.6875000000000000 0.1562500000000000 60.6528845476634473 0.0000000000000000 -0.7681777567114161 
0.7187500000000000 0.1562500000000000 84.1279676013333244 0.0000000000000000 -0.8193994068489170 
0.7500000000000000 0.1562500000000000 65.6502091596261295 0.0000000000000000 -0.8314696123025452 
0.7812500000000000 0.1562500000000000 44.6495499969758995 0.0000000000000000 -0.8115869068489171 
0.8125000000000000 0.1562500000000000 60.6528845476635823 0.0000000000000000 -0.7681777567114162 
0.8437500000000000 0.1562500000000000 74.3253627597140394 0.0000000000000000 -0.6952479661825450 
0.8750000000000000 0.1562500000000000 46.4217080830868554 0.0000000000000000 -0.5879378012096795 
0.9062500000000000 0.1562500000000000 16.7340931984203749 0.0000000000000000 -0.4580335162556433 
0.9375000000000000 0.1562500000000000 25.1232473766917046 0.0000000000000000 -0.3181896451432090 
0.9687500000000000 0.1562500000000000 32.5469292475563776 0.0000000000000000 -0.1661179244107293 
1.0000000000000000 0.1562500000000000 0.0000000000000548 -0.0000000000000002 -0.0000000000000002 
0.0000000000000000 0.1875000000000000 -0.0000000000000000 0.0000000000000000 0.0000000000000000 
0.0312500000000000 0.1875000000000000 -14.2311764645767518 0.0000000000000000 0.1802399555017370 
0.0625000000000000 0.1875000000000000 -27.9154567985555175 0.0000000000000000 0.3535533905932738 
0.0937500000000000 0.1875000000000000 -40.5269617829343147 0.0000000000000000 0.5132799671593367 
0.1250000000000000 0.1875000000000000 -51.5810383537769823 0.0000000000000000 0.6532814824381882 
0.1562500000000000 0.1875000000000000 -60.6528845476635610 0.0000000000000000 0.7681777567114163 
0.1875000000000000 0.1875000000000000 -67.3938744029129424 0.0000000000000000 0.8535533905932737 
0.2187500000000000 0.1875000000000000 -71.5449554597785635 0.0000000000000000 0.9061274463528878 
0.2500000000000000 0.1875000000000000 -72.9466040011981960 0.0000000000000000 0.9238795325112867 
0.2812500000000000 0.1875000000000000 -71.5449554597785919 0.0000000000000000 0.9061274463528878 
0.3125000000000000 0.1875000000000000 -67.3938744029129424 0.0000000000000000 0.8535533905932737 
0.3437500000000000 0.1875000000000000 -60.6528845476635610 0.0000000000000000 0.7681777567114164 
0.3750000000000000 0.1875000000000000 -51.5810383537769823 0.0000000000000000 0.6532814824381883 
0.4062500000000000 0.1875000000000000 -40.5269617829343289 0.0000000000000000 0.5132799671593367 
0.4375000000000000 0.1875000000000000 -27.9154567985555246 0.0000000000000000 0.3535533905932738 
0.4687500000000000 0.1875000000000000 -14.2311764645767642 0.0000000000000000 0.1802399555017373 
0.5000000000000000 0.1875000000000000 -0.0000000000000089 0.0000000000000000 0.0000000000000001 
0.5312500000000000 0.1875000000000000 14.2311764645767465 0.0000000000000000 -0.1802399555017370 
0.5625000000000000 0.1875000000000000 27.9154567985555069 0.0000000000000000 -0.3535533905932737 
0.5937500000000000 0.1875000000000000 40.5269617829343218 0.0000000000000000 -0.5132799671593365 
0.6250000000000000 0.1875000000000000 51.5810383537769823 0.0000000000000000 -0.6532814824381882 
0.6562500000000000 0.1875000000000000 60.6528845476635468 0.0000000000000000 -0.7681777567114163 
0.6875000000000000 0.1875000000000000 67.3938744029129282 0.0000000000000000 -0.8535533905932735 
0.7187500000000000 0.1875000000000000 71.5449554597785919 0.0000000000000000 -0.9061274463528877 
0.7500000000000000 0.1875000000000000 72.9466040011981960 0.0000000000000000 -0.9238795325112867 
0.7812500000000000 0.1875000000000000 71.5449554597785635 0.0000000000000000 -0.9061274463528878 
0.8125000000000000 0.1875000000000000 67.3938744029129282 0.0000000000000000 -0.8535533905932736 
0.8437500000000000 0.1875000000000000 60.6528845476635752 0.0000000000000000 -0.7681777567114165 
0.8750000000000000 0.1875000000000000 51.5810383537769894 0.0000000000000000 -0.6532814824381884 
0.9062500000000000 0.1875000000000000 40.5269617829343147 0.0000000000000000 -0.5132799671593367 
0.9375000000000000 0.1875000000000000 27.9154567985555602 0.0000000000000000 -0.3535533905932743 
0.9687500000000000 0.1875000000000000 14.2311764645767855 0.0000000000000000 -0.1802399555017374 
1.0000000000000000 0.1875000000000000 0.0000000000000179 -0.0000000000000002 -0.0000000000000002 
0.0000000000000000 0.2187500000000000 0.0000000000000000 0.0000000000000000 0.0000000000000000 
0.0312500000000000 0.2187500000000000 4.6314724490008317 0.0000000000000000 0.1874354661825449 
0.0625000000000000 0.2187500000000000 -29.6348908708193015 0.0000000000000000 0.3753302775178652 
0.0937500000000000 0.2187500000000000 -62.7624019539121107 0.0000000000000000 0.5488013567758185 
0.1250000000000000 0.2187500000000000 -54.7581382475110772 0.0000000000000000 0.6935199226610737 
0.1562500000000000 0.2187500000000000 -44.6495499969758995 0.0000000000000000 0.8115869068489171 
0.1875000000000000 0.2187500000000000 -71.5449554597785635 0.0000000000000000 0.9061274463528878 
0.2187500000000000 0.2187500000000000 -95.6909284071352602 0.0000000000000000 0.9658460162556434 
0.2500000000000000 0.2187500000000000 -77.4397017599310828 0.0000000000000000 0.9807852804032304 
0.2812500000000000 0.2187500000000000 -56.2125108027778211 0.0000000000000000 0.9580335162556434 
0.3125000000000000 0.2187500000000000 -71.5449554597785635 0.0000000000000000 0.9061274463528878 
0.3437500000000000 0.2187500000000000 -84.1279676013333528 0.0000000000000000 0.8193994068489172 
0.3750000000000000 0.2187500000000000 -54.7581382475110914 0.0000000000000000 0.6935199226610738 
0.4062500000000000 0.2187500000000000 -23.2839843495546788 0.0000000000000000 0.5409888567758185 
0.4375000000000000 0.2187500000000000 -29.6348908708192944 0.0000000000000000 0.3753302775178654 
0.4687500000000000 0.2187500000000000 -34.8469451553566287 0.0000000000000000 0.1952479661825452 
0.5000000000000000 0.2187500000000000 -0.0000000000000288 0.0000000000000000 0.0000000000000001 
0.5312500000000000 0.2187500000000000 34.8469451553566074 0.0000000000000000 -0.1952479661825450 
0.5625000000000000 0.2187500000000000 29.6348908708193157 0.0000000000000000 -0.3753302775178651 
0.5937500000000000 0.2187500000000000 23.2839843495546717 0.0000000000000000 -0.5409888567758184 
0.6250000000000000 0.2187500000000000 54.7581382475110487 0.0000000000000000 -0.6935199226610737 
0.6562500000000000 0.2187500000000000 84.1279676013333244 0.0000000000000000 -0.8193994068489171 
0.6875000000000000 0.2187500000000000 71.5449554597786630 0.0000000000000000 -0.9061274463528876 
0.7187500000000000 0.2187500000000000 56.2125108027778069 0.0000000000000000 -0.9580335162556433 
0.7500000000000000 0.2187500000000000 77.4397017599310402 0.0000000000000000 -0.9807852804032304 
0.7812500000000000 0.2187500000000000 95.6909284071352602 0.0000000000000000 -0.9658460162556434 
0.8125000000000000 0.2187500000000000 71.5449554597785209 0.0000000000000000 -0.9061274463528877 
0.8437500000000000 0.2187500000000000 44.6495499969759138 0.0000000000000000 -0.8115869068489173 
0.8750000000000000 0.2187500000000000 54.7581382475110487 0.0000000000000000 -0.6935199226610739 
0.9062500000000000 0.2187500000000000 62.7624019539121107 0.0000000000000000 -0.5488013567758185 
0.9375000000000000 0.2187500000000000 29.6348908708194578 0.0000000000000000 -0.3753302775178659 
0.9687500000000000 0.2187500000000000 -4.6314724490007944 0.0000000000000000 -0.1874354661825453 
1.0000000000000000 0.2187500000000000 -0.0000000000000197 -0.0000000000000002 -0.0000000000000002 
0.0000000000000000 0.2500000000000000 0.0000000000000000 0.0000000000000000 0.0000000000000000 
0.0312500000000000 0.2500000000000000 -15.4037144062425462 0.0000000000000000 0.1950903220161282 
0.0625000000000000 0.2500000000000000 -30.2154727063557758 0.0000000000000000 0.3826834323650898 
0.0937500000000000 0.2500000000000000 -43.8660673353960533 0.0000000000000000 0.5555702330196022 
0.1250000000000000 0.2500000000000000 -55.8309135971110280 0.0000000000000000 0.7071067811865475 
0.1562500000000000 0.2500000000000000 -65.6502091596260868 0.0000000000000000 0.8314696123025452 
0.1875000000000000 0.2500000000000000 -72.9466040011981960 0.0000000000000000 0.9238795325112867 
0.2187500000000000 0.2500000000000000 -77.4397017599310828 0.0000000000000000 0.9807852804032304 
0.2500000000000000 0.2500000000000000 -78.9568352087148639 0.0000000000000000 1.0000000000000000 
0.2812500000000000 0.2500000000000000 -77.4397017599310544 0.0000000000000000 0.9807852804032304 
0.3125000000000000 0.2500000000000000 -72.9466040011981960 0.0000000000000000 0.9238795325112867 
0.3437500000000000 0.2500000000000000 -65.6502091596261295 0.0000000000000000 0.8314696123025453 
0.3750000000000000 0.2500000000000000 -55.8309135971110351 0.0000000000000000 0.7071067811865476 
0.4062500000000000 0.2500000000000000 -43.8660673353960391 0.0000000000000000 0.5555702330196022 
0.4375000000000000 0.2500000000000000 -30.2154727063557829 0.0000000000000000 0.3826834323650899 
0.4687500000000000 0.2500000000000000 -15.4037144062425924 0.0000000000000000 0.1950903220161286 
0.5000000000000000 0.2500000000000000 -0.0000000000000097 0.0000000000000000 0.0000000000000001 
0.5312500000000000 0.2500000000000000 15.4037144062425728 0.0000000000000000 -0.1950903220161284 
0.5625000000000000 0.2500000000000000 30.2154727063557651 0.0000000000000000 -0.3826834323650897 
0.5937500000000000 0.2500000000000000 43.8660673353960249 0.0000000000000000 -0.5555702330196020 
0.6250000000000000 0.2500000000000000 55.8309135971110280 0.0000000000000000 -0.7071067811865475 
0.6562500000000000 0.2500000000000000 65.6502091596261153 0.0000000000000000 -0.8314696123025452 
0.6875000000000000 0.2500000000000000 72.9466040011981818 0.0000000000000000 -0.9238795325112865 
0.7187500000000000 0.2500000000000000 77.4397017599310402 0.0000000000000000 -0.9807852804032303 
0.7500000000000000 0.2500000000000000 78.9568352087148639 0.0000000000000000 -1.0000000000000000 
0.7812500000000000 0.2500000000000000 77.4397017599310828 0.0000000000000000 -0.9807852804032304 
0.8125000000000000 0.2500000000000000 72.9466040011981818 0.0000000000000000 -0.9238795325112866 
0.8437500000000000 0.2500000000000000 65.6502091596261010 0.0000000000000000 -0.8314696123025455 
0.8750000000000000 0.2500000000000000 55.8309135971110422 0.0000000000000000 -0.7071067811865477 
0.9062500000000000 0.2500000000000000 43.8660673353960533 0.0000000000000000 -0.5555702330196022 
0.9375000000000000 0.2500000000000000 30.2154727063558219 0.0000000000000000 -0.3826834323650904 
0.9687500000000000 0.2500000000000000 15.4037144062425835 0.0000000000000000 -0.1950903220161287 
1.0000000000000000 0.2500000000000000 0.0000000000000193 -0.0000000000000002 -0.0000000000000002 
0.0000000000000000 0.2812500000000000 -0.0000000000000000 0.0000000000000000 0.0000000000000000 
0.0312500000000000 0.2812500000000000 -34.8469451553566003 0.0000000000000000 0.1952479661825449 
0.0625000000000000 0.2812500000000000 -29.6348908708193086 0.0000000000000000 0.3753302775178652 
0.0937500000000000 0.2812500000000000 -23.2839843495546788 0.0000000000000000 0.5409888567758185 
0.1250000000000000 0.2812500000000000 -54.7581382475110630 0.0000000000000000 0.6935199226610737 
0.1562500000000000 0.2812500000000000 -84.1279676013333244 0.0000000000000000 0.8193994068489171 
0.1875000000000000 0.2812500000000000 -71.5449554597785919 0.0000000000000000 0.9061274463528878 
0.2187500000000000 0.2812500000000000 -56.2125108027778211 0.0000000000000000 0.9580335162556434 
0.2500000000000000 0.2812500000000000 -77.4397017599310544 0.0000000000000000 0.9807852804032304 