variables ="x","y","f","u","ue", "e" 
zone f=point i = 8,j = 8
0.0000000000000000 0.0000000000000000 0.0000000000000000 1.0000000000000000 1.0000000000000000 0.0000000000000000 
0.1250000000000000 0.0000000000000000 0.0156250000000000 1.0000000000000000 1.0000000000000000 0.0000000000000000 
0.2500000000000000 0.0000000000000000 0.0625000000000000 1.0000000000000000 1.0000000000000000 0.0000000000000000 
0.3750000000000000 0.0000000000000000 0.1406250000000000 1.0000000000000000 1.0000000000000000 0.0000000000000000 
0.5000000000000000 0.0000000000000000 0.2500000000000000 1.0000000000000000 1.0000000000000000 0.0000000000000000 
0.6250000000000000 0.0000000000000000 0.3906250000000000 1.0000000000000000 1.0000000000000000 0.0000000000000000 
0.7500000000000000 0.0000000000000000 0.5625000000000000 1.0000000000000000 1.0000000000000000 0.0000000000000000 
0.8750000000000000 0.0000000000000000 0.7656250000000000 1.0000000000000000 1.0000000000000000 0.0000000000000000 
1.0000000000000000 0.0000000000000000 1.0000000000000000 1.0000000000000000 1.0000000000000000 0.0000000000000000 
0.0000000000000000 0.1250000000000000 0.0156250000000000 1.0000000000000000 1.0000000000000000 0.0000000000000000 
0.1250000000000000 0.1250000000000000 0.0317421158933339 1.0157500612928860 1.0157477085866857 0.0000023527062003 
0.2500000000000000 0.1250000000000000 0.0806049537108674 1.0317481081174267 1.0317434074991028 0.0000047006183239 
0.3750000000000000 0.1250000000000000 0.1637485940650989 1.0479981198038950 1.0479910020166328 0.0000071177872623 
0.5000000000000000 0.1250000000000000 0.2827563406500564 1.0645040974859044 1.0644944589178595 0.0000096385680448 
0.6250000000000000 0.1250000000000000 0.4392609842761723 1.0812698333010347 1.0812578074490395 0.0000120258519951 
0.7500000000000000 0.1250000000000000 0.6349460967404618 1.0982985002999135 1.0982851403078258 0.0000133599920877 
0.8750000000000000 0.1250000000000000 0.8715473551894380 1.1155918586007185 1.1155806146424807 0.0000112439582378 
1.0000000000000000 0.1250000000000000 1.1508538976459954 1.1331484530668263 1.1331484530668263 0.0000000000000000 
0.0000000000000000 0.2500000000000000 0.0625000000000000 1.0000000000000000 1.0000000000000000 0.0000000000000000 
0.1250000000000000 0.2500000000000000 0.0806049537108674 1.0317481081174267 1.0317434074991028 0.0000047006183239 
0.2500000000000000 0.2500000000000000 0.1330618073647324 1.0645037042583390 1.0644944589178595 0.0000092453404794 
0.3750000000000000 0.2500000000000000 0.2230891691250271 1.0982988462546888 1.0982851403078258 0.0000137059468630 
0.5000000000000000 0.2500000000000000 0.3541088915833832 1.1331665052379443 1.1331484530668263 0.0000180521711179 
0.6250000000000000 0.2500000000000000 0.5297567959205567 1.1691401894232116 1.1691184461695043 0.0000217432537073 
0.7500000000000000 0.2500000000000000 0.7538939058881129 1.2062533429531923 1.2062302494209807 0.0000230935322116 
0.8750000000000000 0.2500000000000000 1.0306182142437976 1.2445384092288367 1.2445201077660952 0.0000183014627415 
1.0000000000000000 0.2500000000000000 1.3642770052307251 1.2840254166877414 1.2840254166877414 0.0000000000000000 
0.0000000000000000 0.3750000000000000 0.1406250000000000 1.0000000000000000 1.0000000000000000 0.0000000000000000 
0.1250000000000000 0.3750000000000000 0.1637485940650989 1.0479981198038950 1.0479910020166328 0.0000071177872623 
0.2500000000000000 0.3750000000000000 0.2230891691250271 1.0982988462546888 1.0982851403078258 0.0000137059468630 
0.3750000000000000 0.3750000000000000 0.3237167656943933 1.1510128244105491 1.1509929446911764 0.0000198797193727 
0.5000000000000000 0.3750000000000000 0.4711836911800706 1.2062558402699000 1.2062302494209807 0.0000255908489193 
0.6250000000000000 0.3750000000000000 0.6715629253690291 1.2641485269590025 1.2641184477534664 0.0000300792055361 
0.7500000000000000 0.3750000000000000 0.9314892834812337 1.3248158667218886 1.3247847587288657 0.0000311079930229 
0.8750000000000000 0.3750000000000000 1.2582035217481931 1.3883864291525700 1.3883625067566268 0.0000239223959433 
1.0000000000000000 0.3750000000000000 1.6595995822988858 1.4549914146182013 1.4549914146182013 0.0000000000000000 
0.0000000000000000 0.5000000000000000 0.2500000000000000 1.0000000000000000 1.0000000000000000 0.0000000000000000 
0.1250000000000000 0.5000000000000000 0.2827563406500564 1.0645040974859046 1.0644944589178595 0.0000096385680450 
0.2500000000000000 0.5000000000000000 0.3541088915833832 1.1331665052379445 1.1331484530668263 0.0000180521711182 
0.3750000000000000 0.5000000000000000 0.4711836911800706 1.2062558402699000 1.2062302494209807 0.0000255908489193 
0.5000000000000000 0.5000000000000000 0.6420127083438707 1.2840577495568295 1.2840254166877414 0.0000323328690881 
0.6250000000000000 0.5000000000000000 0.8756305560644633 1.3668753833163874 1.3668379411737963 0.0000374421425910 
0.7500000000000000 0.5000000000000000 1.1821805243772885 1.4550296886830909 1.4549914146182013 0.0000382740648897 
0.8750000000000000 0.5000000000000000 1.5730307720502914 1.5488594571723140 1.5488302986341331 0.0000291585381809 
1.0000000000000000 0.5000000000000000 2.0609015883751605 1.6487212707001282 1.6487212707001282 0.0000000000000000 
0.0000000000000000 0.6250000000000000 0.3906250000000000 1.0000000000000000 1.0000000000000000 0.0000000000000000 
0.1250000000000000 0.6250000000000000 0.4392609842761723 1.0812698333010347 1.0812578074490395 0.0000120258519951 
0.2500000000000000 0.6250000000000000 0.5297567959205567 1.1691401894232119 1.1691184461695043 0.0000217432537075 
0.3750000000000000 0.6250000000000000 0.6715629253690291 1.2641485269590025 1.2641184477534664 0.0000300792055361 
0.5000000000000000 0.6250000000000000 0.8756305560644633 1.3668753833163871 1.3668379411737963 0.0000374421425908 
0.6250000000000000 0.6250000000000000 1.1546126526654206 1.4779472953697996 1.4779041954117385 0.0000430999580612 
0.7500000000000000 0.6250000000000000 1.5230894132341972 1.5980396192070785 1.5979954499506333 0.0000441692564452 
0.8750000000000000 0.6250000000000000 1.9978208466095324 1.7278790464980121 1.7278450565271632 0.0000339899708488 
1.0000000000000000 0.6250000000000000 2.5980295345541844 1.8682459574322223 1.8682459574322223 0.0000000000000000 
0.0000000000000000 0.7500000000000000 0.5625000000000000 1.0000000000000000 1.0000000000000000 0.0000000000000000 
0.1250000000000000 0.7500000000000000 0.6349460967404618 1.0982985002999135 1.0982851403078258 0.0000133599920877 
0.2500000000000000 0.7500000000000000 0.7538939058881129 1.2062533429531923 1.2062302494209807 0.0000230935322116 
0.3750000000000000 0.7500000000000000 0.9314892834812337 1.3248158667218886 1.3247847587288657 0.0000311079930229 
0.5000000000000000 0.7500000000000000 1.1821805243772885 1.4550296886830909 1.4549914146182013 0.0000382740648897 
0.6250000000000000 0.7500000000000000 1.5230894132341972 1.5980396192070787 1.5979954499506333 0.0000441692564455 
0.7500000000000000 0.7500000000000000 1.9744364890803359 1.7551007187046128 1.7550546569602985 0.0000460617443143 
0.8750000000000000 0.7500000000000000 2.5600279416287703 1.9275871037176369 1.9275504501675447 0.0000366535500922 
1.0000000000000000 0.7500000000000000 3.3078125259573046 2.1170000166126748 2.1170000166126748 0.0000000000000000 
0.0000000000000000 0.8750000000000000 0.7656250000000000 1.0000000000000000 1.0000000000000000 0.0000000000000000 
0.1250000000000000 0.8750000000000000 0.8715473551894380 1.1155918586007183 1.1155806146424807 0.0000112439582376 
0.2500000000000000 0.8750000000000000 1.0306182142437976 1.2445384092288367 1.2445201077660952 0.0000183014627415 
0.3750000000000000 0.8750000000000000 1.2582035217481931 1.3883864291525703 1.3883625067566268 0.0000239223959435 
0.5000000000000000 0.8750000000000000 1.5730307720502914 1.5488594571723142 1.5488302986341331 0.0000291585381811 
0.6250000000000000 0.8750000000000000 1.9978208466095324 1.7278790464980121 1.7278450565271632 0.0000339899708488 
0.7500000000000000 0.8750000000000000 2.5600279416287703 1.9275871037176369 1.9275504501675447 0.0000366535500922 
0.8750000000000000 0.8750000000000000 3.2927049338019598 2.1503690700764149 2.1503379159523002 0.0000311541241147 
1.0000000000000000 0.8750000000000000 4.2355141909106573 2.3988752939670981 2.3988752939670981 0.0000000000000000 
0.0000000000000000 1.0000000000000000 1.0000000000000000 1.0000000000000000 1.0000000000000000 0.0000000000000000 
0.1250000000000000 1.0000000000000000 1.1508538976459954 1.1331484530668263 1.1331484530668263 0.0000000000000000 
0.2500000000000000 1.0000000000000000 1.3642770052307251 1.2840254166877414 1.2840254166877414 0.0000000000000000 
0.3750000000000000 1.0000000000000000 1.6595995822988858 1.4549914146182013 1.4549914146182013 0.0000000000000000 
0.5000000000000000 1.0000000000000000 2.0609015883751605 1.6487212707001282 1.6487212707001282 0.0000000000000000 
0.6250000000000000 1.0000000000000000 2.5980295345541844 1.8682459574322223 1.8682459574322223 0.0000000000000000 
0.7500000000000000 1.0000000000000000 3.3078125259573046 2.1170000166126748 2.1170000166126748 0.0000000000000000 
0.8750000000000000 1.0000000000000000 4.2355141909106573 2.3988752939670981 2.3988752939670981 0.0000000000000000 
1.0000000000000000 1.0000000000000000 5.4365636569180902 2.7182818284590451 2.7182818284590451 0.0000000000000000 
