variables ="x","y","f","u","ue", "e" 
zone f=point i = 8,j = 8
0.0000000000000000 0.0000000000000000 -0.0000000000000000 0.0000000000000000 0.0000000000000000 0.0000000000000000 
0.1250000000000000 0.0000000000000000 0.0000000000000000 0.0000000000000000 0.0000000000000000 0.0000000000000000 
0.2500000000000000 0.0000000000000000 0.0000000000000000 0.0000000000000000 0.0000000000000000 0.0000000000000000 
0.3750000000000000 0.0000000000000000 0.0000000000000000 0.0000000000000000 0.0000000000000000 0.0000000000000000 
0.5000000000000000 0.0000000000000000 0.0000000000000000 0.0000000000000000 0.0000000000000000 0.0000000000000000 
0.6250000000000000 0.0000000000000000 0.0000000000000000 0.0000000000000000 0.0000000000000000 0.0000000000000000 
0.7500000000000000 0.0000000000000000 0.0000000000000000 0.0000000000000000 0.0000000000000000 0.0000000000000000 
0.8750000000000000 0.0000000000000000 0.0000000000000000 0.0000000000000000 0.0000000000000000 0.0000000000000000 
1.0000000000000000 0.0000000000000000 0.0000000000000000 0.0000000000000000 0.0000000000000000 0.0000000000000000 
0.0000000000000000 0.1250000000000000 0.0000000000000000 0.0000000000000000 0.0000000000000000 0.0000000000000000 
0.1250000000000000 0.1250000000000000 -2.8907402014504791 0.1464612100347780 0.1464466094067262 0.0000146006280517 
0.2500000000000000 0.1250000000000000 -5.3413914118553025 0.2706250285159361 0.2705980500730985 0.0000269784428376 
0.3750000000000000 0.1250000000000000 -6.9788641996388794 0.3535886396275354 0.3535533905932738 0.0000352490342616 
0.5000000000000000 0.1250000000000000 -7.5538681765889439 0.3827215856448424 0.3826834323650898 0.0000381532797527 
0.6250000000000000 0.1250000000000000 -6.9788641996388794 0.3535886396275354 0.3535533905932738 0.0000352490342616 
0.7500000000000000 0.1250000000000000 -5.3413914118553034 0.2706250285159361 0.2705980500730985 0.0000269784428376 
0.8750000000000000 0.1250000000000000 -2.8907402014504799 0.1464612100347782 0.1464466094067263 0.0000146006280519 
1.0000000000000000 0.1250000000000000 -0.0000000000000009 0.0000000000000000 0.0000000000000000 0.0000000000000000 
0.0000000000000000 0.2500000000000000 0.0000000000000000 0.0000000000000000 0.0000000000000000 0.0000000000000000 
0.1250000000000000 0.2500000000000000 -5.3413914118553025 0.2706250285159361 0.2705980500730985 0.0000269784428376 
0.2500000000000000 0.2500000000000000 -9.8696044010893562 0.5000498496623133 0.4999999999999999 0.0000498496623134 
0.3750000000000000 0.2500000000000000 -12.8952595884442456 0.6533466141607784 0.6532814824381882 0.0000651317225903 
0.5000000000000000 0.2500000000000000 -13.9577283992777570 0.7071772792550708 0.7071067811865475 0.0000704980685233 
0.6250000000000000 0.2500000000000000 -12.8952595884442456 0.6533466141607784 0.6532814824381882 0.0000651317225903 
0.7500000000000000 0.2500000000000000 -9.8696044010893580 0.5000498496623134 0.5000000000000000 0.0000498496623134 
0.8750000000000000 0.2500000000000000 -5.3413914118553043 0.2706250285159364 0.2705980500730986 0.0000269784428379 
1.0000000000000000 0.2500000000000000 -0.0000000000000017 0.0000000000000001 0.0000000000000001 0.0000000000000000 
0.0000000000000000 0.3750000000000000 0.0000000000000000 0.0000000000000000 0.0000000000000000 0.0000000000000000 
0.1250000000000000 0.3750000000000000 -6.9788641996388794 0.3535886396275354 0.3535533905932738 0.0000352490342616 
0.2500000000000000 0.3750000000000000 -12.8952595884442456 0.6533466141607784 0.6532814824381882 0.0000651317225903 
0.3750000000000000 0.3750000000000000 -16.8484686007282356 0.8536384892898486 0.8535533905932737 0.0000850986965749 
0.5000000000000000 0.3750000000000000 -18.2366510002995490 0.9239716426767146 0.9238795325112867 0.0000921101654279 
0.6250000000000000 0.3750000000000000 -16.8484686007282356 0.8536384892898486 0.8535533905932737 0.0000850986965749 
0.7500000000000000 0.3750000000000000 -12.8952595884442456 0.6533466141607784 0.6532814824381883 0.0000651317225902 
0.8750000000000000 0.3750000000000000 -6.9788641996388812 0.3535886396275359 0.3535533905932738 0.0000352490342621 
1.0000000000000000 0.3750000000000000 -0.0000000000000022 0.0000000000000001 0.0000000000000001 0.0000000000000000 
0.0000000000000000 0.5000000000000000 0.0000000000000000 0.0000000000000000 0.0000000000000000 0.0000000000000000 
0.1250000000000000 0.5000000000000000 -7.5538681765889439 0.3827215856448424 0.3826834323650898 0.0000381532797527 
0.2500000000000000 0.5000000000000000 -13.9577283992777570 0.7071772792550708 0.7071067811865475 0.0000704980685233 
0.3750000000000000 0.5000000000000000 -18.2366510002995490 0.9239716426767146 0.9238795325112867 0.0000921101654279 
0.5000000000000000 0.5000000000000000 -19.7392088021787160 1.0000996993246267 1.0000000000000000 0.0000996993246267 
0.6250000000000000 0.5000000000000000 -18.2366510002995490 0.9239716426767146 0.9238795325112867 0.0000921101654279 
0.7500000000000000 0.5000000000000000 -13.9577283992777588 0.7071772792550708 0.7071067811865476 0.0000704980685232 
0.8750000000000000 0.5000000000000000 -7.5538681765889457 0.3827215856448429 0.3826834323650899 0.0000381532797530 
1.0000000000000000 0.5000000000000000 -0.0000000000000024 0.0000000000000001 0.0000000000000001 0.0000000000000000 
0.0000000000000000 0.6250000000000000 0.0000000000000000 0.0000000000000000 0.0000000000000000 0.0000000000000000 
0.1250000000000000 0.6250000000000000 -6.9788641996388794 0.3535886396275354 0.3535533905932738 0.0000352490342616 
0.2500000000000000 0.6250000000000000 -12.8952595884442456 0.6533466141607784 0.6532814824381882 0.0000651317225903 
0.3750000000000000 0.6250000000000000 -16.8484686007282356 0.8536384892898486 0.8535533905932737 0.0000850986965749 
0.5000000000000000 0.6250000000000000 -18.2366510002995490 0.9239716426767146 0.9238795325112867 0.0000921101654279 
0.6250000000000000 0.6250000000000000 -16.8484686007282356 0.8536384892898486 0.8535533905932737 0.0000850986965749 
0.7500000000000000 0.6250000000000000 -12.8952595884442456 0.6533466141607784 0.6532814824381883 0.0000651317225902 
0.8750000000000000 0.6250000000000000 -6.9788641996388812 0.3535886396275359 0.3535533905932738 0.0000352490342621 
1.0000000000000000 0.6250000000000000 -0.0000000000000022 0.0000000000000001 0.0000000000000001 0.0000000000000000 
0.0000000000000000 0.7500000000000000 0.0000000000000000 0.0000000000000000 0.0000000000000000 0.0000000000000000 
0.1250000000000000 0.7500000000000000 -5.3413914118553034 0.2706250285159361 0.2705980500730985 0.0000269784428376 
0.2500000000000000 0.7500000000000000 -9.8696044010893580 0.5000498496623134 0.5000000000000000 0.0000498496623134 
0.3750000000000000 0.7500000000000000 -12.8952595884442474 0.6533466141607785 0.6532814824381883 0.0000651317225903 
0.5000000000000000 0.7500000000000000 -13.9577283992777588 0.7071772792550708 0.7071067811865476 0.0000704980685232 
0.6250000000000000 0.7500000000000000 -12.8952595884442474 0.6533466141607785 0.6532814824381883 0.0000651317225903 
0.7500000000000000 0.7500000000000000 -9.8696044010893598 0.5000498496623134 0.5000000000000001 0.0000498496623133 
0.8750000000000000 0.7500000000000000 -5.3413914118553043 0.2706250285159364 0.2705980500730986 0.0000269784428378 
1.0000000000000000 0.7500000000000000 -0.0000000000000017 0.0000000000000001 0.0000000000000001 0.0000000000000000 
0.0000000000000000 0.8750000000000000 0.0000000000000000 0.0000000000000000 0.0000000000000000 0.0000000000000000 
0.1250000000000000 0.8750000000000000 -2.8907402014504799 0.1464612100347782 0.1464466094067263 0.0000146006280519 
0.2500000000000000 0.8750000000000000 -5.3413914118553043 0.2706250285159364 0.2705980500730986 0.0000269784428379 
0.3750000000000000 0.8750000000000000 -6.9788641996388812 0.3535886396275359 0.3535533905932738 0.0000352490342621 
0.5000000000000000 0.8750000000000000 -7.5538681765889457 0.3827215856448429 0.3826834323650899 0.0000381532797530 
0.6250000000000000 0.8750000000000000 -6.9788641996388812 0.3535886396275359 0.3535533905932738 0.0000352490342621 
0.7500000000000000 0.8750000000000000 -5.3413914118553043 0.2706250285159364 0.2705980500730986 0.0000269784428378 
0.8750000000000000 0.8750000000000000 -2.8907402014504808 0.1464612100347783 0.1464466094067263 0.0000146006280520 
1.0000000000000000 0.8750000000000000 -0.0000000000000009 0.0000000000000000 0.0000000000000000 0.0000000000000000 
0.0000000000000000 1.0000000000000000 0.0000000000000000 0.0000000000000000 0.0000000000000000 0.0000000000000000 
0.1250000000000000 1.0000000000000000 -0.0000000000000009 0.0000000000000000 0.0000000000000000 0.0000000000000000 
0.2500000000000000 1.0000000000000000 -0.0000000000000017 0.0000000000000001 0.0000000000000001 0.0000000000000000 
0.3750000000000000 1.0000000000000000 -0.0000000000000022 0.0000000000000001 0.0000000000000001 0.0000000000000000 
0.5000000000000000 1.0000000000000000 -0.0000000000000024 0.0000000000000001 0.0000000000000001 0.0000000000000000 
0.6250000000000000 1.0000000000000000 -0.0000000000000022 0.0000000000000001 0.0000000000000001 0.0000000000000000 
0.7500000000000000 1.0000000000000000 -0.0000000000000017 0.0000000000000001 0.0000000000000001 0.0000000000000000 
0.8750000000000000 1.0000000000000000 -0.0000000000000009 0.0000000000000000 0.0000000000000000 0.0000000000000000 
1.0000000000000000 1.0000000000000000 -0.0000000000000000 0.0000000000000000 0.0000000000000000 0.0000000000000000 
