variables ="x","y","f","u","ue" 
zone f=point i = 8,j = 8
0.0000000000000000 0.0000000000000000 -0.0000000000000000 0.0000000000000000 0.0000000000000000 
0.1250000000000000 0.0000000000000000 0.0000000000000000 0.0000000000000000 0.0000000000000000 
0.2500000000000000 0.0000000000000000 0.0000000000000000 0.0000000000000000 0.0000000000000000 
0.3750000000000000 0.0000000000000000 0.0000000000000000 0.0000000000000000 0.0000000000000000 
0.5000000000000000 0.0000000000000000 0.0000000000000000 0.0000000000000000 0.0000000000000000 
0.6250000000000000 0.0000000000000000 0.0000000000000000 0.0000000000000000 0.0000000000000000 
0.7500000000000000 0.0000000000000000 0.0000000000000000 0.0000000000000000 0.0000000000000000 
0.8750000000000000 0.0000000000000000 0.0000000000000000 0.0000000000000000 0.0000000000000000 
1.0000000000000000 0.0000000000000000 0.0000000000000000 0.0000000000000000 0.0000000000000000 
0.0000000000000000 0.1250000000000000 0.0000000000000000 0.0000000000000000 0.0000000000000000 
0.1250000000000000 0.1250000000000000 -2.8907402014504791 0.0000000000000000 0.1464466094067262 
0.2500000000000000 0.1250000000000000 -5.3413914118553025 0.0000000000000000 0.2705980500730985 
0.3750000000000000 0.1250000000000000 -6.9788641996388794 0.0000000000000000 0.3535533905932738 
0.5000000000000000 0.1250000000000000 -7.5538681765889439 0.0000000000000000 0.3826834323650898 
0.6250000000000000 0.1250000000000000 -6.9788641996388794 0.0000000000000000 0.3535533905932738 
0.7500000000000000 0.1250000000000000 -5.3413914118553034 0.0000000000000000 0.2705980500730985 
0.8750000000000000 0.1250000000000000 -2.8907402014504799 0.0000000000000000 0.1464466094067263 
1.0000000000000000 0.1250000000000000 -0.0000000000000009 0.0000000000000000 0.0000000000000000 
0.0000000000000000 0.2500000000000000 0.0000000000000000 0.0000000000000000 0.0000000000000000 
0.1250000000000000 0.2500000000000000 -5.3413914118553025 0.0000000000000000 0.2705980500730985 
0.2500000000000000 0.2500000000000000 -9.8696044010893562 0.0000000000000000 0.4999999999999999 
0.3750000000000000 0.2500000000000000 -12.8952595884442456 0.0000000000000000 0.6532814824381882 
0.5000000000000000 0.2500000000000000 -13.9577283992777570 0.0000000000000000 0.7071067811865475 
0.6250000000000000 0.2500000000000000 -12.8952595884442456 0.0000000000000000 0.6532814824381882 
0.7500000000000000 0.2500000000000000 -9.8696044010893580 0.0000000000000000 0.5000000000000000 
0.8750000000000000 0.2500000000000000 -5.3413914118553043 0.0000000000000000 0.2705980500730986 
1.0000000000000000 0.2500000000000000 -0.0000000000000017 0.0000000000000001 0.0000000000000001 
0.0000000000000000 0.3750000000000000 0.0000000000000000 0.0000000000000000 0.0000000000000000 
0.1250000000000000 0.3750000000000000 -6.9788641996388794 0.0000000000000000 0.3535533905932738 
0.2500000000000000 0.3750000000000000 -12.8952595884442456 0.0000000000000000 0.6532814824381882 
0.3750000000000000 0.3750000000000000 -16.8484686007282356 0.0000000000000000 0.8535533905932737 
0.5000000000000000 0.3750000000000000 -18.2366510002995490 0.0000000000000000 0.9238795325112867 
0.6250000000000000 0.3750000000000000 -16.8484686007282356 0.0000000000000000 0.8535533905932737 
0.7500000000000000 0.3750000000000000 -12.8952595884442456 0.0000000000000000 0.6532814824381883 
0.8750000000000000 0.3750000000000000 -6.9788641996388812 0.0000000000000000 0.3535533905932738 
1.0000000000000000 0.3750000000000000 -0.0000000000000022 0.0000000000000001 0.0000000000000001 
0.0000000000000000 0.5000000000000000 0.0000000000000000 0.0000000000000000 0.0000000000000000 
0.1250000000000000 0.5000000000000000 -7.5538681765889439 0.0000000000000000 0.3826834323650898 
0.2500000000000000 0.5000000000000000 -13.9577283992777570 0.0000000000000000 0.7071067811865475 
0.3750000000000000 0.5000000000000000 -18.2366510002995490 0.0000000000000000 0.9238795325112867 
0.5000000000000000 0.5000000000000000 -19.7392088021787160 0.0000000000000000 1.0000000000000000 
0.6250000000000000 0.5000000000000000 -18.2366510002995490 0.0000000000000000 0.9238795325112867 
0.7500000000000000 0.5000000000000000 -13.9577283992777588 0.0000000000000000 0.7071067811865476 
0.8750000000000000 0.5000000000000000 -7.5538681765889457 0.0000000000000000 0.3826834323650899 
1.0000000000000000 0.5000000000000000 -0.0000000000000024 0.0000000000000001 0.0000000000000001 
0.0000000000000000 0.6250000000000000 0.0000000000000000 0.0000000000000000 0.0000000000000000 
0.1250000000000000 0.6250000000000000 -6.9788641996388794 0.0000000000000000 0.3535533905932738 
0.2500000000000000 0.6250000000000000 -12.8952595884442456 0.0000000000000000 0.6532814824381882 
0.3750000000000000 0.6250000000000000 -16.8484686007282356 0.0000000000000000 0.8535533905932737 
0.5000000000000000 0.6250000000000000 -18.2366510002995490 0.0000000000000000 0.9238795325112867 
0.6250000000000000 0.6250000000000000 -16.8484686007282356 0.0000000000000000 0.8535533905932737 
0.7500000000000000 0.6250000000000000 -12.8952595884442456 0.0000000000000000 0.6532814824381883 
0.8750000000000000 0.6250000000000000 -6.9788641996388812 0.0000000000000000 0.3535533905932738 
1.0000000000000000 0.6250000000000000 -0.0000000000000022 0.0000000000000001 0.0000000000000001 
0.0000000000000000 0.7500000000000000 0.0000000000000000 0.0000000000000000 0.0000000000000000 
0.1250000000000000 0.7500000000000000 -5.3413914118553034 0.0000000000000000 0.2705980500730985 
0.2500000000000000 0.7500000000000000 -9.8696044010893580 0.0000000000000000 0.5000000000000000 
0.3750000000000000 0.7500000000000000 -12.8952595884442474 0.0000000000000000 0.6532814824381883 
0.5000000000000000 0.7500000000000000 -13.9577283992777588 0.0000000000000000 0.7071067811865476 
0.6250000000000000 0.7500000000000000 -12.8952595884442474 0.0000000000000000 0.6532814824381883 
0.7500000000000000 0.7500000000000000 -9.8696044010893598 0.0000000000000000 0.5000000000000001 
0.8750000000000000 0.7500000000000000 -5.3413914118553043 0.0000000000000000 0.2705980500730986 
1.0000000000000000 0.7500000000000000 -0.0000000000000017 0.0000000000000001 0.0000000000000001 
0.0000000000000000 0.8750000000000000 0.0000000000000000 0.0000000000000000 0.0000000000000000 
0.1250000000000000 0.8750000000000000 -2.8907402014504799 0.0000000000000000 0.1464466094067263 
0.2500000000000000 0.8750000000000000 -5.3413914118553043 0.0000000000000000 0.2705980500730986 
0.3750000000000000 0.8750000000000000 -6.9788641996388812 0.0000000000000000 0.3535533905932738 
0.5000000000000000 0.8750000000000000 -7.5538681765889457 0.0000000000000000 0.3826834323650899 
0.6250000000000000 0.8750000000000000 -6.9788641996388812 0.0000000000000000 0.3535533905932738 
0.7500000000000000 0.8750000000000000 -5.3413914118553043 0.0000000000000000 0.2705980500730986 
0.8750000000000000 0.8750000000000000 -2.8907402014504808 0.0000000000000000 0.1464466094067263 
1.0000000000000000 0.8750000000000000 -0.0000000000000009 0.0000000000000000 0.0000000000000000 
0.0000000000000000 1.0000000000000000 0.0000000000000000 0.0000000000000000 0.0000000000000000 
0.1250000000000000 1.0000000000000000 -0.0000000000000009 0.0000000000000000 0.0000000000000000 
0.2500000000000000 1.0000000000000000 -0.0000000000000017 0.0000000000000001 0.0000000000000001 
0.3750000000000000 1.0000000000000000 -0.0000000000000022 0.0000000000000001 0.0000000000000001 
0.5000000000000000 1.0000000000000000 -0.0000000000000024 0.0000000000000001 0.0000000000000001 
0.6250000000000000 1.0000000000000000 -0.0000000000000022 0.0000000000000001 0.0000000000000001 
0.7500000000000000 1.0000000000000000 -0.0000000000000017 0.0000000000000001 0.0000000000000001 
0.8750000000000000 1.0000000000000000 -0.0000000000000009 0.0000000000000000 0.0000000000000000 
1.0000000000000000 1.0000000000000000 -0.0000000000000000 0.0000000000000000 0.0000000000000000 
