variables ="x","y","f","u","ue" 
zone f=point i = 16,j = 16
0.0000000000000000 0.0000000000000000 0.0000000000000000 1.0000000000000000 1.0000000000000000 
0.0625000000000000 0.0000000000000000 0.0039062500000000 1.0000000000000000 1.0000000000000000 
0.1250000000000000 0.0000000000000000 0.0156250000000000 1.0000000000000000 1.0000000000000000 
0.1875000000000000 0.0000000000000000 0.0351562500000000 1.0000000000000000 1.0000000000000000 
0.2500000000000000 0.0000000000000000 0.0625000000000000 1.0000000000000000 1.0000000000000000 
0.3125000000000000 0.0000000000000000 0.0976562500000000 1.0000000000000000 1.0000000000000000 
0.3750000000000000 0.0000000000000000 0.1406250000000000 1.0000000000000000 1.0000000000000000 
0.4375000000000000 0.0000000000000000 0.1914062500000000 1.0000000000000000 1.0000000000000000 
0.5000000000000000 0.0000000000000000 0.2500000000000000 1.0000000000000000 1.0000000000000000 
0.5625000000000000 0.0000000000000000 0.3164062500000000 1.0000000000000000 1.0000000000000000 
0.6250000000000000 0.0000000000000000 0.3906250000000000 1.0000000000000000 1.0000000000000000 
0.6875000000000000 0.0000000000000000 0.4726562500000000 1.0000000000000000 1.0000000000000000 
0.7500000000000000 0.0000000000000000 0.5625000000000000 1.0000000000000000 1.0000000000000000 
0.8125000000000000 0.0000000000000000 0.6601562500000000 1.0000000000000000 1.0000000000000000 
0.8750000000000000 0.0000000000000000 0.7656250000000000 1.0000000000000000 1.0000000000000000 
0.9375000000000000 0.0000000000000000 0.8789062500000000 1.0000000000000000 1.0000000000000000 
1.0000000000000000 0.0000000000000000 1.0000000000000000 1.0000000000000000 1.0000000000000000 
0.0000000000000000 0.0625000000000000 0.0039062500000000 1.0000000000000000 1.0000000000000000 
0.0625000000000000 0.0625000000000000 0.0078430772604558 0.0000000000000000 1.0039138893383475 
0.1250000000000000 0.0625000000000000 0.0196844354923134 0.0000000000000000 1.0078430972064480 
0.1875000000000000 0.0625000000000000 0.0395229563890364 0.0000000000000000 1.0117876835593316 
0.2500000000000000 0.0625000000000000 0.0674519962733346 0.0000000000000000 1.0157477085866857 
0.3125000000000000 0.0625000000000000 0.1035656408224927 0.0000000000000000 1.0197232327137742 
0.3750000000000000 0.0625000000000000 0.1479587098214346 0.0000000000000000 1.0237143166023579 
0.4375000000000000 0.0625000000000000 0.2007267619436761 0.0000000000000000 1.0277210211516217 
0.5000000000000000 0.0625000000000000 0.2619660995603191 0.0000000000000000 1.0317434074991028 
0.5625000000000000 0.0625000000000000 0.3317737735772389 0.0000000000000000 1.0357815370216239 
0.6250000000000000 0.0625000000000000 0.4102475883006220 0.0000000000000000 1.0398354713362301 
0.6875000000000000 0.0625000000000000 0.4974861063310065 0.0000000000000000 1.0439052723011284 
0.7500000000000000 0.0625000000000000 0.5935886534859834 0.0000000000000000 1.0479910020166328 
0.8125000000000000 0.0625000000000000 0.6986553237517136 0.0000000000000000 1.0520927228261099 
0.8750000000000000 0.0625000000000000 0.8127869842634203 0.0000000000000000 1.0562104973169320 
0.9375000000000000 0.0625000000000000 0.9360852803150137 0.0000000000000000 1.0603443883214314 
1.0000000000000000 0.0625000000000000 1.0686526403980074 1.0644944589178595 1.0644944589178595 
0.0000000000000000 0.1250000000000000 0.0156250000000000 1.0000000000000000 1.0000000000000000 
0.0625000000000000 0.1250000000000000 0.0196844354923134 0.0000000000000000 1.0078430972064480 
0.1250000000000000 0.1250000000000000 0.0317421158933339 0.0000000000000000 1.0157477085866857 
0.1875000000000000 0.1250000000000000 0.0519854926399635 0.0000000000000000 1.0237143166023579 
0.2500000000000000 0.1250000000000000 0.0806049537108674 0.0000000000000000 1.0317434074991028 
0.3125000000000000 0.1250000000000000 0.1177938619873073 0.0000000000000000 1.0398354713362301 
0.3750000000000000 0.1250000000000000 0.1637485940650989 0.0000000000000000 1.0479910020166328 
0.4375000000000000 0.1250000000000000 0.2186685795226461 0.0000000000000000 1.0562104973169320 
0.5000000000000000 0.1250000000000000 0.2827563406500564 0.0000000000000000 1.0644944589178595 
0.5625000000000000 0.1250000000000000 0.3562175326443929 0.0000000000000000 1.0728433924348775 
0.6250000000000000 0.1250000000000000 0.4392609842761723 0.0000000000000000 1.0812578074490395 
0.6875000000000000 0.1250000000000000 0.5320987390322721 0.0000000000000000 1.0897382175380932 
0.7500000000000000 0.1250000000000000 0.6349460967404618 0.0000000000000000 1.0982851403078258 
0.8125000000000000 0.1250000000000000 0.7480216556808310 0.0000000000000000 1.1068990974236574 
0.8750000000000000 0.1250000000000000 0.8715473551894380 0.0000000000000000 1.1155806146424807 
0.9375000000000000 0.1250000000000000 1.0057485187595621 0.0000000000000000 1.1243302218447506 
1.0000000000000000 0.1250000000000000 1.1508538976459954 1.1331484530668263 1.1331484530668263 
0.0000000000000000 0.1875000000000000 0.0351562500000000 1.0000000000000000 1.0000000000000000 
0.0625000000000000 0.1875000000000000 0.0395229563890364 0.0000000000000000 1.0117876835593316 
0.1250000000000000 0.1875000000000000 0.0519854926399635 0.0000000000000000 1.0237143166023579 
0.1875000000000000 0.1875000000000000 0.0728283893218329 0.0000000000000000 1.0357815370216239 
0.2500000000000000 0.1875000000000000 0.1023428712906868 0.0000000000000000 1.0479910020166328 
0.3125000000000000 0.1875000000000000 0.1408269890739401 0.0000000000000000 1.0603443883214314 
0.3750000000000000 0.1875000000000000 0.1885857525764433 0.0000000000000000 1.0728433924348775 
0.4375000000000000 0.1875000000000000 0.2459312671465232 0.0000000000000000 1.0854897308536195 
0.5000000000000000 0.1875000000000000 0.3131828720409034 0.0000000000000000 1.0982851403078258 
0.5625000000000000 0.1875000000000000 0.3906672813280162 0.0000000000000000 1.1112313779996905 
0.6250000000000000 0.1875000000000000 0.4787187272698352 0.0000000000000000 1.1243302218447506 
0.6875000000000000 0.1875000000000000 0.5776791062229940 0.0000000000000000 1.1375834707160497 
0.7500000000000000 0.1875000000000000 0.6878981271005860 0.0000000000000000 1.1509929446911764 
0.8125000000000000 0.1875000000000000 0.8097334624366992 0.0000000000000000 1.1645604853022191 
0.8750000000000000 0.1875000000000000 0.9435509020963905 0.0000000000000000 1.1782879557886632 
0.9375000000000000 0.1875000000000000 1.0897245096744748 0.0000000000000000 1.1921772413532716 
1.0000000000000000 0.1875000000000000 1.2486367816271871 1.2062302494209807 1.2062302494209807 
0.0000000000000000 0.2500000000000000 0.0625000000000000 1.0000000000000000 1.0000000000000000 
0.0625000000000000 0.2500000000000000 0.0674519962733346 0.0000000000000000 1.0157477085866857 
0.1250000000000000 0.2500000000000000 0.0806049537108674 0.0000000000000000 1.0317434074991028 
0.1875000000000000 0.2500000000000000 0.1023428712906868 0.0000000000000000 1.0479910020166328 
0.2500000000000000 0.2500000000000000 0.1330618073647324 0.0000000000000000 1.0644944589178595 
0.3125000000000000 0.2500000000000000 0.1731701957242602 0.0000000000000000 1.0812578074490395 
0.3750000000000000 0.2500000000000000 0.2230891691250271 0.0000000000000000 1.0982851403078258 
0.4375000000000000 0.2500000000000000 0.2832528904365674 0.0000000000000000 1.1155806146424807 
0.5000000000000000 0.2500000000000000 0.3541088915833832 0.0000000000000000 1.1331484530668263 
0.5625000000000000 0.2500000000000000 0.4361184204493911 0.0000000000000000 1.1509929446911764 
0.6250000000000000 0.2500000000000000 0.5297567959205567 0.0000000000000000 1.1691184461695043 
0.6875000000000000 0.2500000000000000 0.6355137712443155 0.0000000000000000 1.1875293827631006 
0.7500000000000000 0.2500000000000000 0.7538939058881129 0.0000000000000000 1.2062302494209807 
0.8125000000000000 0.2500000000000000 0.8854169460832105 0.0000000000000000 1.2252256118773075 
0.8750000000000000 0.2500000000000000 1.0306182142437976 0.0000000000000000 1.2445201077660952 
0.9375000000000000 0.2500000000000000 1.1900490074554118 0.0000000000000000 1.2641184477534664 
1.0000000000000000 0.2500000000000000 1.3642770052307251 1.2840254166877414 1.2840254166877414 
0.0000000000000000 0.3125000000000000 0.0976562500000000 1.0000000000000000 1.0000000000000000 
0.0625000000000000 0.3125000000000000 0.1035656408224927 0.0000000000000000 1.0197232327137742 
0.1250000000000000 0.3125000000000000 0.1177938619873073 0.0000000000000000 1.0398354713362301 
0.1875000000000000 0.3125000000000000 0.1408269890739401 0.0000000000000000 1.0603443883214314 
0.2500000000000000 0.3125000000000000 0.1731701957242602 0.0000000000000000 1.0812578074490395 
0.3125000000000000 0.3125000000000000 0.2153483802361215 0.0000000000000000 1.1025837068089421 
0.3750000000000000 0.3125000000000000 0.2679068106739445 0.0000000000000000 1.1243302218447506 
0.4375000000000000 0.3125000000000000 0.3314117890071953 0.0000000000000000 1.1465056484573242 
0.5000000000000000 0.3125000000000000 0.4064513348011167 0.0000000000000000 1.1691184461695043 
0.5625000000000000 0.3125000000000000 0.4936358889978391 0.0000000000000000 1.1921772413532716 
0.6250000000000000 0.3125000000000000 0.5935990383401111 0.0000000000000000 1.2156908305205474 
0.6875000000000000 0.3125000000000000 0.7069982610043759 0.0000000000000000 1.2396681836789056 
0.7500000000000000 0.3125000000000000 0.8345156940247493 0.0000000000000000 1.2641184477534664 
0.8125000000000000 0.3125000000000000 0.9768589231046833 0.0000000000000000 1.2890509500762830 
0.8750000000000000 0.3125000000000000 1.1347617954286928 0.0000000000000000 1.3144752019445491 
0.9375000000000000 0.3125000000000000 1.3089852561025264 0.0000000000000000 1.3404009022489869 
1.0000000000000000 0.3125000000000000 1.5003182088665499 1.3668379411737963 1.3668379411737963 
0.0000000000000000 0.3750000000000000 0.1406250000000000 1.0000000000000000 1.0000000000000000 
0.0625000000000000 0.3750000000000000 0.1479587098214346 0.0000000000000000 1.0237143166023579 
0.1250000000000000 0.3750000000000000 0.1637485940650989 0.0000000000000000 1.0479910020166328 
0.1875000000000000 0.3750000000000000 0.1885857525764433 0.0000000000000000 1.0728433924348775 
0.2500000000000000 0.3750000000000000 0.2230891691250271 0.0000000000000000 1.0982851403078258 
0.3125000000000000 0.3750000000000000 0.2679068106739445 0.0000000000000000 1.1243302218447506 
0.3750000000000000 0.3750000000000000 0.3237167656943933 0.0000000000000000 1.1509929446911764 
0.4375000000000000 0.3750000000000000 0.3912284228204546 0.0000000000000000 1.1782879557886632 
0.5000000000000000 0.3750000000000000 0.4711836911800706 0.0000000000000000 1.2062302494209807 
0.5625000000000000 0.3750000000000000 0.5643582637803813 0.0000000000000000 1.2348351754510909 
0.6250000000000000 0.3750000000000000 0.6715629253690291 0.0000000000000000 1.2641184477534664 
0.6875000000000000 0.3750000000000000 0.7936449062378148 0.0000000000000000 1.2940961528463732 
0.7500000000000000 0.3750000000000000 0.9314892834812337 0.0000000000000000 1.3247847587288657 
0.8125000000000000 0.3750000000000000 1.0860204312699406 0.0000000000000000 1.3562011239273404 
0.8750000000000000 0.3750000000000000 1.2582035217481931 0.0000000000000000 1.3883625067566268 
0.9375000000000000 0.3750000000000000 1.4490460782147727 0.0000000000000000 1.4212865748006966 
1.0000000000000000 0.3750000000000000 1.6595995822988858 1.4549914146182013 1.4549914146182013 
0.0000000000000000 0.4375000000000000 0.1914062500000000 1.0000000000000000 1.0000000000000000 
0.0625000000000000 0.4375000000000000 0.2007267619436761 0.0000000000000000 1.0277210211516217 
0.1250000000000000 0.4375000000000000 0.2186685795226461 0.0000000000000000 1.0562104973169320 
0.1875000000000000 0.4375000000000000 0.2459312671465232 0.0000000000000000 1.0854897308536195 
0.2500000000000000 0.4375000000000000 0.2832528904365674 0.0000000000000000 1.1155806146424807 
0.3125000000000000 0.4375000000000000 0.3314117890071953 0.0000000000000000 1.1465056484573242 
0.3750000000000000 0.4375000000000000 0.3912284228204546 0.0000000000000000 1.1782879557886632 
0.4375000000000000 0.4375000000000000 0.4635672949652758 0.0000000000000000 1.2109513011337818 
0.5000000000000000 0.4375000000000000 0.5493389538186280 0.0000000000000000 1.2445201077660952 
0.5625000000000000 0.4375000000000000 0.6495020776547762 0.0000000000000000 1.2790194759970976 
0.6250000000000000 0.4375000000000000 0.7650656448817884 0.0000000000000000 1.3144752019445491 
0.6875000000000000 0.4375000000000000 0.8970911932014030 0.0000000000000000 1.3509137968209362 
0.7500000000000000 0.4375000000000000 1.0466951711094881 0.0000000000000000 1.3883625067566268 
0.8125000000000000 0.4375000000000000 1.2150513852797460 0.0000000000000000 1.4268493331725458 
0.8750000000000000 0.4375000000000000 1.4033935475031711 0.0000000000000000 1.4664030537175992 
0.9375000000000000 0.4375000000000000 1.6130179249902461 0.0000000000000000 1.5070532437865074 
1.0000000000000000 0.4375000000000000 1.8452860979820727 1.5488302986341331 1.5488302986341331 
0.0000000000000000 0.5000000000000000 0.2500000000000000 1.0000000000000000 1.0000000000000000 
0.0625000000000000 0.5000000000000000 0.2619660995603191 0.0000000000000000 1.0317434074991028 
0.1250000000000000 0.5000000000000000 0.2827563406500564 0.0000000000000000 1.0644944589178595 
0.1875000000000000 0.5000000000000000 0.3131828720409034 0.0000000000000000 1.0982851403078258 
0.2500000000000000 0.5000000000000000 0.3541088915833832 0.0000000000000000 1.1331484530668263 
0.3125000000000000 0.5000000000000000 0.4064513348011167 0.0000000000000000 1.1691184461695043 
0.3750000000000000 0.5000000000000000 0.4711836911800706 0.0000000000000000 1.2062302494209807 
0.4375000000000000 0.5000000000000000 0.5493389538186280 0.0000000000000000 1.2445201077660952 
0.5000000000000000 0.5000000000000000 0.6420127083438707 0.0000000000000000 1.2840254166877414 
0.5625000000000000 0.5000000000000000 0.7503663672487716 0.0000000000000000 1.3247847587288657 
0.6250000000000000 0.5000000000000000 0.8756305560644633 0.0000000000000000 1.3668379411737963 
0.6875000000000000 0.5000000000000000 1.0191086580517832 0.0000000000000000 1.4102260349257107 
0.7500000000000000 0.5000000000000000 1.1821805243772885 0.0000000000000000 1.4549914146182013 
0.8125000000000000 0.5000000000000000 1.3663063570313618 0.0000000000000000 1.5011778000001228 
0.8750000000000000 0.5000000000000000 1.5730307720502914 0.0000000000000000 1.5488302986341331 
0.9375000000000000 0.5000000000000000 1.8039870509208320 0.0000000000000000 1.5979954499506333 
1.0000000000000000 0.5000000000000000 2.0609015883751605 1.6487212707001282 1.6487212707001282 
0.0000000000000000 0.5625000000000000 0.3164062500000000 1.0000000000000000 1.0000000000000000 
0.0625000000000000 0.5625000000000000 0.3317737735772389 0.0000000000000000 1.0357815370216239 
0.1250000000000000 0.5625000000000000 0.3562175326443929 0.0000000000000000 1.0728433924348775 
0.1875000000000000 0.5625000000000000 0.3906672813280162 0.0000000000000000 1.1112313779996905 
0.2500000000000000 0.5625000000000000 0.4361184204493911 0.0000000000000000 1.1509929446911764 
0.3125000000000000 0.5625000000000000 0.4936358889978391 0.0000000000000000 1.1921772413532716 
0.3750000000000000 0.5625000000000000 0.5643582637803813 0.0000000000000000 1.2348351754510909 
0.4375000000000000 0.5625000000000000 0.6495020776547762 0.0000000000000000 1.2790194759970976 
0.5000000000000000 0.5625000000000000 0.7503663672487716 0.0000000000000000 1.3247847587288657 
0.5625000000000000 0.5625000000000000 0.8683374615870268 0.0000000000000000 1.3721875936190053 
0.6250000000000000 0.5625000000000000 1.0048940235895552 0.0000000000000000 1.4212865748006966 
0.6875000000000000 0.5625000000000000 1.1616123569728261 0.0000000000000000 1.4721423929952646 
0.7500000000000000 0.5625000000000000 1.3401719916779238 0.0000000000000000 1.5248179105313266 
0.8125000000000000 0.5625000000000000 1.5423615615705455 0.0000000000000000 1.5793782390482385 
0.8750000000000000 0.5625000000000000 1.7700849888063654 0.0000000000000000 1.6358908199798901 
0.9375000000000000 0.5625000000000000 2.0253679899336348 0.0000000000000000 1.6944255079183350 
1.0000000000000000 0.5625000000000000 2.3103649195141429 1.7550546569602985 1.7550546569602985 
0.0000000000000000 0.6250000000000000 0.3906250000000000 1.0000000000000000 1.0000000000000000 
0.0625000000000000 0.6250000000000000 0.4102475883006220 0.0000000000000000 1.0398354713362301 
0.1250000000000000 0.6250000000000000 0.4392609842761723 0.0000000000000000 1.0812578074490395 
0.1875000000000000 0.6250000000000000 0.4787187272698352 0.0000000000000000 1.1243302218447506 
0.2500000000000000 0.6250000000000000 0.5297567959205567 0.0000000000000000 1.1691184461695043 
0.3125000000000000 0.6250000000000000 0.5935990383401111 0.0000000000000000 1.2156908305205474 
0.3750000000000000 0.6250000000000000 0.6715629253690291 0.0000000000000000 1.2641184477534664 
0.4375000000000000 0.6250000000000000 0.7650656448817884 0.0000000000000000 1.3144752019445491 
0.5000000000000000 0.6250000000000000 0.8756305560644633 0.0000000000000000 1.3668379411737963 
0.5625000000000000 0.6250000000000000 1.0048940235895552 0.0000000000000000 1.4212865748006966 
0.6250000000000000 0.6250000000000000 1.1546126526654206 0.0000000000000000 1.4779041954117385 
0.6875000000000000 0.6250000000000000 1.3266709470441103 0.0000000000000000 1.5367772056257567 
0.7500000000000000 0.6250000000000000 1.5230894132341972 0.0000000000000000 1.5979954499506333 
0.8125000000000000 0.6250000000000000 1.7460331353871121 0.0000000000000000 1.6616523518925677 
0.8750000000000000 0.6250000000000000 1.9978208466095324 0.0000000000000000 1.7278450565271632 
0.9375000000000000 0.6250000000000000 2.2809345238035812 0.0000000000000000 1.7966745787498977 
1.0000000000000000 0.6250000000000000 2.5980295345541844 1.8682459574322223 1.8682459574322223 
0.0000000000000000 0.6875000000000000 0.4726562500000000 1.0000000000000000 1.0000000000000000 
0.0625000000000000 0.6875000000000000 0.4974861063310065 0.0000000000000000 1.0439052723011284 
0.1250000000000000 0.6875000000000000 0.5320987390322721 0.0000000000000000 1.0897382175380932 
0.1875000000000000 0.6875000000000000 0.5776791062229940 0.0000000000000000 1.1375834707160497 
0.2500000000000000 0.6875000000000000 0.6355137712443155 0.0000000000000000 1.1875293827631006 
0.3125000000000000 0.6875000000000000 0.7069982610043759 0.0000000000000000 1.2396681836789056 
0.3750000000000000 0.6875000000000000 0.7936449062378148 0.0000000000000000 1.2940961528463732 
0.4375000000000000 0.6875000000000000 0.8970911932014030 0.0000000000000000 1.3509137968209362 
0.5000000000000000 0.6875000000000000 1.0191086580517832 0.0000000000000000 1.4102260349257107 
0.5625000000000000 0.6875000000000000 1.1616123569728261 0.0000000000000000 1.4721423929952646 
0.6250000000000000 0.6875000000000000 1.3266709470441103 0.0000000000000000 1.5367772056257567 
0.6875000000000000 0.6875000000000000 1.5165174148741851 0.0000000000000000 1.6042498273049230 
0.7500000000000000 0.6875000000000000 1.7335604921684482 0.0000000000000000 1.6746848528117839 
0.8125000000000000 0.6875000000000000 1.9803967996679201 0.0000000000000000 1.7482123472930606 
0.8750000000000000 0.6875000000000000 2.2598237632884643 0.0000000000000000 1.8249680864411575 
0.9375000000000000 0.6875000000000000 2.5748533488170318 0.0000000000000000 1.9050938072172259 
1.0000000000000000 0.6875000000000000 2.9287266641895471 1.9887374695822919 1.9887374695822919 
0.0000000000000000 0.7500000000000000 0.5625000000000000 1.0000000000000000 1.0000000000000000 
0.0625000000000000 0.7500000000000000 0.5935886534859834 0.0000000000000000 1.0479910020166328 
0.1250000000000000 0.7500000000000000 0.6349460967404618 0.0000000000000000 1.0982851403078258 
0.1875000000000000 0.7500000000000000 0.6878981271005860 0.0000000000000000 1.1509929446911764 
0.2500000000000000 0.7500000000000000 0.7538939058881129 0.0000000000000000 1.2062302494209807 
0.3125000000000000 0.7500000000000000 0.8345156940247493 0.0000000000000000 1.2641184477534664 
0.3750000000000000 0.7500000000000000 0.9314892834812337 0.0000000000000000 1.3247847587288657 
0.4375000000000000 0.7500000000000000 1.0466951711094881 0.0000000000000000 1.3883625067566268 
0.5000000000000000 0.7500000000000000 1.1821805243772885 0.0000000000000000 1.4549914146182013 
0.5625000000000000 0.7500000000000000 1.3401719916779238 0.0000000000000000 1.5248179105313266 
0.6250000000000000 0.7500000000000000 1.5230894132341972 0.0000000000000000 1.5979954499506333 
0.6875000000000000 0.7500000000000000 1.7335604921684482 0.0000000000000000 1.6746848528117839 
0.7500000000000000 0.7500000000000000 1.9744364890803359 0.0000000000000000 1.7550546569602985 
0.8125000000000000 0.7500000000000000 2.2488090074749119 0.0000000000000000 1.8392814885417810 
0.8750000000000000 0.7500000000000000 2.5600279416287703 0.0000000000000000 1.9275504501675447 
0.9375000000000000 0.7500000000000000 2.9117206629863635 0.0000000000000000 2.0200555277086965 
1.0000000000000000 0.7500000000000000 3.3078125259573046 2.1170000166126748 2.1170000166126748 
0.0000000000000000 0.8125000000000000 0.6601562500000000 1.0000000000000000 1.0000000000000000 
0.0625000000000000 0.8125000000000000 0.6986553237517136 0.0000000000000000 1.0520927228261099 
0.1250000000000000 0.8125000000000000 0.7480216556808310 0.0000000000000000 1.1068990974236574 
0.1875000000000000 0.8125000000000000 0.8097334624366992 0.0000000000000000 1.1645604853022191 
0.2500000000000000 0.8125000000000000 0.8854169460832105 0.0000000000000000 1.2252256118773075 
0.3125000000000000 0.8125000000000000 0.9768589231046833 0.0000000000000000 1.2890509500762830 
0.3750000000000000 0.8125000000000000 1.0860204312699406 0.0000000000000000 1.3562011239273404 
0.4375000000000000 0.8125000000000000 1.2150513852797460 0.0000000000000000 1.4268493331725458 
0.5000000000000000 0.8125000000000000 1.3663063570313618 0.0000000000000000 1.5011778000001228 
0.5625000000000000 0.8125000000000000 1.5423615615705455 0.0000000000000000 1.5793782390482385 
0.6250000000000000 0.8125000000000000 1.7460331353871121 0.0000000000000000 1.6616523518925677 
0.6875000000000000 0.8125000000000000 1.9803967996679201 0.0000000000000000 1.7482123472930606 
0.7500000000000000 0.8125000000000000 2.2488090074749119 0.0000000000000000 1.8392814885417810 
0.8125000000000000 0.8125000000000000 2.5549296805912922 0.0000000000000000 1.9350946693235824 
0.8750000000000000 0.8125000000000000 2.9027466490033298 0.0000000000000000 2.0358990195749382 
0.9375000000000000 0.8125000000000000 3.2966019136875788 0.0000000000000000 2.1419545429036044 
1.0000000000000000 0.8125000000000000 3.7412198615844283 2.2535347872132085 2.2535347872132085 
0.0000000000000000 0.8750000000000000 0.7656250000000000 1.0000000000000000 1.0000000000000000 
0.0625000000000000 0.8750000000000000 0.8127869842634203 0.0000000000000000 1.0562104973169320 
0.1250000000000000 0.8750000000000000 0.8715473551894380 0.0000000000000000 1.1155806146424807 
0.1875000000000000 0.8750000000000000 0.9435509020963905 0.0000000000000000 1.1782879557886632 
0.2500000000000000 0.8750000000000000 1.0306182142437976 0.0000000000000000 1.2445201077660952 
0.3125000000000000 0.8750000000000000 1.1347617954286928 0.0000000000000000 1.3144752019445491 
0.3750000000000000 0.8750000000000000 1.2582035217481931 0.0000000000000000 1.3883625067566268 
0.4375000000000000 0.8750000000000000 1.4033935475031711 0.0000000000000000 1.4664030537175992 
0.5000000000000000 0.8750000000000000 1.5730307720502914 0.0000000000000000 1.5488302986341331 
0.5625000000000000 0.8750000000000000 1.7700849888063654 0.0000000000000000 1.6358908199798901 
0.6250000000000000 0.8750000000000000 1.9978208466095324 0.0000000000000000 1.7278450565271632 
0.6875000000000000 0.8750000000000000 2.2598237632884643 0.0000000000000000 1.8249680864411575 
0.7500000000000000 0.8750000000000000 2.5600279416287703 0.0000000000000000 1.9275504501675447 
0.8125000000000000 0.8750000000000000 2.9027466490033298 0.0000000000000000 2.0358990195749382 
0.8750000000000000 0.8750000000000000 3.2927049338019598 0.0000000000000000 2.1503379159523002 
0.9375000000000000 0.8750000000000000 3.7350749645106625 0.0000000000000000 2.2712094796074336 
1.0000000000000000 0.8750000000000000 4.2355141909106573 2.3988752939670981 2.3988752939670981 
0.0000000000000000 0.9375000000000000 0.8789062500000000 1.0000000000000000 1.0000000000000000 
0.0625000000000000 0.9375000000000000 0.9360852803150137 0.0000000000000000 1.0603443883214314 
0.1250000000000000 0.9375000000000000 1.0057485187595621 0.0000000000000000 1.1243302218447506 
0.1875000000000000 0.9375000000000000 1.0897245096744748 0.0000000000000000 1.1921772413532716 
0.2500000000000000 0.9375000000000000 1.1900490074554118 0.0000000000000000 1.2641184477534664 
0.3125000000000000 0.9375000000000000 1.3089852561025264 0.0000000000000000 1.3404009022489869 
0.3750000000000000 0.9375000000000000 1.4490460782147727 0.0000000000000000 1.4212865748006966 
0.4375000000000000 0.9375000000000000 1.6130179249902461 0.0000000000000000 1.5070532437865074 
0.5000000000000000 0.9375000000000000 1.8039870509208320 0.0000000000000000 1.5979954499506333 
0.5625000000000000 0.9375000000000000 2.0253679899336348 0.0000000000000000 1.6944255079183350 
0.6250000000000000 0.9375000000000000 2.2809345238035812 0.0000000000000000 1.7966745787498977 
0.6875000000000000 0.9375000000000000 2.5748533488170318 0.0000000000000000 1.9050938072172259 
0.7500000000000000 0.9375000000000000 2.9117206629863635 0.0000000000000000 2.0200555277086965 
0.8125000000000000 0.9375000000000000 3.2966019136875788 0.0000000000000000 2.1419545429036044 
0.8750000000000000 0.9375000000000000 3.7350749645106625 0.0000000000000000 2.2712094796074336 
0.9375000000000000 0.9375000000000000 4.2332769604760996 0.0000000000000000 2.4082642264041811 
1.0000000000000000 0.9375000000000000 4.7979551926885460 2.5535894580629268 2.5535894580629268 
0.0000000000000000 1.0000000000000000 1.0000000000000000 1.0000000000000000 1.0000000000000000 
0.0625000000000000 1.0000000000000000 1.0686526403980074 1.0644944589178595 1.0644944589178595 
0.1250000000000000 1.0000000000000000 1.1508538976459954 1.1331484530668263 1.1331484530668263 
0.1875000000000000 1.0000000000000000 1.2486367816271871 1.2062302494209807 1.2062302494209807 
0.2500000000000000 1.0000000000000000 1.3642770052307251 1.2840254166877414 1.2840254166877414 
0.3125000000000000 1.0000000000000000 1.5003182088665499 1.3668379411737963 1.3668379411737963 
0.3750000000000000 1.0000000000000000 1.6595995822988858 1.4549914146182013 1.4549914146182013 
0.4375000000000000 1.0000000000000000 1.8452860979820727 1.5488302986341331 1.5488302986341331 
0.5000000000000000 1.0000000000000000 2.0609015883751605 1.6487212707001282 1.6487212707001282 
0.5625000000000000 1.0000000000000000 2.3103649195141429 1.7550546569602985 1.7550546569602985 
0.6250000000000000 1.0000000000000000 2.5980295345541844 1.8682459574322223 1.8682459574322223 
0.6875000000000000 1.0000000000000000 2.9287266641895471 1.9887374695822919 1.9887374695822919 
0.7500000000000000 1.0000000000000000 3.3078125259573046 2.1170000166126748 2.1170000166126748 
0.8125000000000000 1.0000000000000000 3.7412198615844283 2.2535347872132085 2.2535347872132085 
0.8750000000000000 1.0000000000000000 4.2355141909106573 2.3988752939670981 2.3988752939670981 
0.9375000000000000 1.0000000000000000 4.7979551926885460 2.5535894580629268 2.5535894580629268 
1.0000000000000000 1.0000000000000000 5.4365636569180902 2.7182818284590451 2.7182818284590451 
