variables ="k","rms","rms/rms0"
zone T="32 x 32"
1 10.088500466869986 0.7002023930904124 
2 8.929404063967302 0.6197541562290276 
3 7.975574472188608 0.5535526662298796 
4 7.12233693491482 0.4943328676646093 
5 6.35920961917662 0.44136725850720265 
6 5.676799670925905 0.39400391839506177 
7 5.066675656503942 0.35165765530243265 
8 4.521290975018751 0.3138046899004036 
9 4.0338912285252375 0.27997622649227316 
10 3.5984251744854507 0.24975227258062718 
11 3.2094655601613122 0.22275614429975257 
12 2.8621407744705736 0.19864972264482814 
13 2.5520761505554757 0.17712937951841412 
14 2.275343174309927 0.1579224524978434 
15 2.0284149674862677 0.14078415509603998 
16 1.8081267612361736 0.12549483338837433 
17 1.611640432433152 0.11185750462090979 
18 1.436412458003719 0.0996956330489356 
19 1.2801648397493162 0.08885111194535938 
20 1.1408586788494368 0.07918242951285545 
21 1.016670156031446 0.07056300176369865 
22 0.9059687181103395 0.06287965853489495 
23 0.8072972972419334 0.05603127058580614 
24 0.7193544043778953 0.049927506776614575 
25 0.6409779483228429 0.044487711013912905 
26 0.5711306394757967 0.03963988918288506 
27 0.5088868443638399 0.03531979677316112 
28 0.45342076416187643 0.031470118397241974 
29 0.4039958177776122 0.028039730912969563 
30 0.35995511775633476 0.024983042394240387 
31 0.3207129351078178 0.02225939973884111 
32 0.2857470570264424 0.019832558248424573 
33 0.25459194921981737 0.01767020705313769 
34 0.22683264205974554 0.01574354477385798 
35 0.20209926692969274 0.014026900311964132 
36 0.18006217590163479 0.012497394125661223 
37 0.16042758419334022 0.011134635790401267 
38 0.14293368071655968 0.009920454047617959 
39 0.12734715742455122 0.008838655920645198 
40 0.11346011311288265 0.007874811819937159 
41 0.10108729183786418 0.007016063872757275 
42 0.09006362021464583 0.006250954996907149 
43 0.08024201156836572 0.005569276495656459 
44 0.07149140826379763 0.004961932183688118 
45 0.06369503656019215 0.004420817263565541 
46 0.056748851055905575 0.003938710360867404 
47 0.050560148228490816 0.0035091772955608553 
48 0.04504633076590776 0.0031264853191821113 
49 0.0401338063466185 0.002785526683575423 
50 0.03575700628310821 0.0024817505288721262 
51 0.03185751101474619 0.0022111021874542504 
52 0.028383270840822268 0.001969969098157073 
53 0.02528791153976095 0.0017551326120811355 
54 0.022530115641603496 0.00156372504919445 
55 0.020073071121624094 0.001393191434365463 
56 0.017883980176124074 0.0012412554034592536 
57 0.015933621538436825 0.0011058888254452202 
58 0.014195960503909071 0.0009852847357936499 
59 0.012647801466800558 0.0008778332204541999 
60 0.011268478337155349 0.0007820999289314233 
61 0.010039578709963907 0.0006968069299715559 
62 0.008944698108085446 0.0006208156545484976 
63 0.007969221021092276 0.0005531116986473688 
64 0.00710012581908764 0.0004927912831143114 
65 0.006325810938863561 0.00043904918993417104 
66 0.0056359400232754335 0.00039116801397500996 
67 0.005021303947413916 0.0003485085867775546 
68 0.004473697890441942 0.0003105014446039721 
69 0.0039858118125522795 0.00027663922688235006 
70 0.0035511328754150783 0.000246469903600959 
71 0.003163858503752645 0.00021959074126051714 
72 0.0028188189277068023 0.0001956429268502793 
73 0.0025114081721772648 0.00017430677809453698 
74 0.002237522571960449 0.00015529747603477132 
75 0.001993505992087855 0.00013836126299284054 
76 0.001776101022076472 0.00012327205515946378 
77 0.0015824054926872081 0.00010982842459665968 
78 0.001409833734754288 9.78509103683296e-5 
79 0.0012560820629073572 8.717962290371454e-5 
80 0.0011190980235283167 7.76721096213016e-5 
81 0.0009970529963316441 6.920145331429865e-5 
82 0.0008883177839569091 6.165457792206252e-5 
83 0.0007914408636177286 5.493073906419814e-5 
84 0.0007051290105610562 4.894017919250884e-5 
85 0.0006282300346515433 4.3602929406490984e-5 
86 0.0005597173996343383 3.884774193799491e-5 
87 0.0004986765197660235 3.461113905528731e-5 
88 0.00044429255088727427 3.083656569032525e-5 
89 0.00039583951294689654 2.747363447673538e-5 
90 0.0003526705987966238 2.4477453122093127e-5 
91 0.0003142095398626186 2.1808025133779103e-5 
92 0.00027994291346389836 1.9429715900775405e-5 
93 0.0002494132890376385 1.731077700062675e-5 
94 0.00022221312184295851 1.542292238588803e-5 
95 0.00019797931258527606 1.3740950789450126e-5 
96 0.00017638836033600973 1.2242409308118603e-5 
97 0.000157152044084988 1.0907293676470292e-5 
98 0.00014001357522287256 9.71778122607518e-6 
99 0.0001247441696296141 8.657992967891668e-6 
100 0.00011113999361323602 7.713781622115071e-6 
101 9.901944288254576e-5 6.872542762576598e-6 
102 8.822071830275039e-5 6.1230465596544885e-6 
103 7.859966599271186e-5 5.455287870079178e-6 
104 7.002785301703637e-5 4.860352678431852e-6 
105 6.239085288413858e-5 4.330299100435051e-6 
106 5.558671808431247e-5 3.858051367940656e-6 
107 4.952461914592946e-5 3.4373053712738616e-6 
108 4.4123632155029465e-5 3.0624445058263646e-6 
109 3.931165848778583e-5 2.7284646950153526e-6 
110 3.502446234667437e-5 2.430907589525563e-6 
111 3.1204813275643446e-5 2.1658010527231507e-6 
112 2.7801722174119862e-5 1.9296061354491075e-6 
113 2.476976065278127e-5 1.7191698352307463e-6 
114 2.2068454564292938e-5 1.5316830036802426e-6 
115 1.9661743760090578e-5 1.3646428503776694e-6 
116 1.7517500672179773e-5 1.2158195295627237e-6 
117 1.5607101464513533e-5 1.0832263754702258e-6 
118 1.3905043909673298e-5 9.650933806817044e-7 
119 1.2388606984189033e-5 8.598435700005553e-7 
120 1.1037547525278181e-5 7.6607194661178e-7 
121 9.833830026805299e-6 6.825267383022428e-7 
122 8.761385875549722e-6 6.080926870147425e-7 
123 7.805898849728559e-6 5.417761611599946e-7 
124 6.954613995546056e-6 4.826918905037486e-7 
125 6.196167380998282e-6 4.3005115006054174e-7 
126 5.520434381994035e-6 3.8315123024126537e-7 
127 4.918394531431811e-6 3.4136605656914164e-7 
128 4.382011104868425e-6 3.0413783220347996e-7 
129 3.904123836472794e-6 2.709695917839127e-7 
130 3.478353332189073e-6 2.414185671310617e-7 
131 3.0990159154603786e-6 2.1509027702943328e-7 
132 2.761047750519295e-6 1.9163326092904717e-7 
133 2.459937246915627e-6 1.707343874145613e-7 
134 2.191664834867052e-6 1.5211467425367868e-7 
135 1.952649301369896e-6 1.3552556380162613e-7 
136 1.7396999908657547e-6 1.2074560544095464e-7 
137 1.5499742088953714e-6 1.0757749913983767e-7 
138 1.38093927920507e-6 9.584546198786436e-8 
139 1.230338726025735e-6 8.539288104353033e-8 
140 1.0961621568291933e-6 7.608022301703687e-8 
141 9.766184292138489e-7 6.778317189134242e-8 
142 8.701117369614151e-7 6.039096915118276e-8 
143 7.752202999110199e-7 5.380493473262172e-8 
144 6.906774058610201e-7 4.7937151217420546e-8 
145 6.153544689104096e-7 4.270928798039985e-8 
146 5.482459966089644e-7 3.80515578195673e-8 
147 4.884561482030877e-7 3.3901784017822445e-8 
148 4.3518677722518633e-7 3.0204570426998295e-8 
149 3.877267819296967e-7 2.6910562324298384e-8 
150 3.454426151457388e-7 2.397578773919621e-8 
151 3.0776981559261244e-7 2.1361069675977582e-8 
152 2.7420548276334486e-7 1.9031503825560588e-8 
153 2.443015628796556e-7 1.6955992570532658e-8 
154 2.176588628663077e-7 1.5106829519096124e-8 
155 1.9392172547468795e-7 1.345932992673255e-8 
156 1.727732793711993e-7 1.1991501023870767e-8 
157 1.5393121011994156e-7 1.0683748496740315e-8 
158 1.3714399449159858e-7 9.518615125840309e-9 
159 1.2218753620494393e-7 8.48054728623781e-9 
160 1.0886217802425219e-7 7.555687569221603e-9 
161 9.699003841698347e-8 6.731689930383989e-9 
162 8.641263512178359e-8 5.9975547509979865e-9 
163 7.69887656853722e-8 5.343481734575348e-9 
164 6.859262949942298e-8 4.76073956497136e-9 
165 6.111215217019156e-8 4.241549607594921e-9 
166 5.4447466343291304e-8 3.77898046954351e-9 
167 4.8509610560100335e-8 3.3668576924400446e-9 
168 4.3219317363431976e-8 2.999679639703493e-9 
169 3.850596457997938e-8 2.672544709265531e-9 
170 3.430663427110382e-8 2.3810860191155133e-9 
171 3.056526916291757e-8 2.1214128584926874e-9 
172 2.723192483122842e-8 1.8900587850396636e-9 
173 2.4262101809217755e-8 1.6839352690725739e-9 
174 2.1616159449201514e-8 1.5002910120745391e-9 
175 1.925877620134464e-8 1.3366744868038856e-9 
176 1.7158479824780777e-8 1.1909013311303932e-9 
177 1.528723418254513e-8 1.0610256691272851e-9 
178 1.362005968840523e-8 9.45313767806609e-10 
179 1.2134701036857722e-8 8.422209755897101e-10 
180 1.081133224555923e-8 7.503712504842445e-10 
181 9.632284473799598e-9 6.68538269055028e-10 
182 8.581821403508213e-9 5.956298365197283e-10 
183 7.64591733134723e-9 5.306724850102328e-10 
184 6.812078025197253e-9 4.727990399391432e-10 
185 6.0691761332036125e-9 4.212371964011876e-10 
186 5.407292270919677e-9 3.752984896685977e-10 
187 4.817592486390965e-9 3.3436979053359017e-10 
188 4.292199997682094e-9 2.979044031240561e-10 
189 3.824108241376674e-9 2.6541602994835084e-10 
190 3.4070635320336345e-9 2.3647062775833726e-10 
191 3.0355013445424734e-9 2.1068198516297854e-10 
192 2.7044583734618596e-9 1.8770561901940612e-10 
193 2.409520924006966e-9 1.6723519245814616e-10 
194 2.1467462269653794e-9 1.489970536667215e-10 
195 1.912629417541543e-9 1.327479440235594e-10 
196 1.7040447043888008e-9 1.1827091487623953e-10 
197 1.5182068222700075e-9 1.0537265212512475e-10 
198 1.3526364348525848e-9 9.388107496999627e-11 
199 1.2051215886540296e-9 8.364266058286398e-11 
200 1.0736957511391179e-9 7.452091982029414e-11 
201 9.566026432694135e-10 6.639395639158566e-11 
202 8.522775417702937e-10 5.915316912404563e-11 
203 7.59330721693096e-10 5.2702102777573055e-11 
204 6.765201954739051e-10 4.695455597196303e-11 
205 6.027416705474061e-10 4.1833884185123834e-11 
206 5.370089575416831e-10 3.727163996438164e-11 
207 4.784428801858952e-10 3.320680320761e-11 
208 4.2626664367469806e-10 2.958545969996318e-11 
209 3.797791777332918e-10 2.6358950962834602e-11 
210 3.3836323507738305e-10 2.3484436335512606e-11 
211 3.0146175678399157e-10 2.092325259027131e-11 
212 2.685836891965009e-10 1.8641317660442066e-11 
213 2.3929366335095796e-10 1.66084143307471e-11 
214 2.1319546616701883e-10 1.4797043038893527e-11 
215 1.8994718753443903e-10 1.3183473174152711e-11 
216 1.6923146150568508e-10 1.1745677637782063e-11 
217 1.5077596825010873e-10 1.0464755801513583e-11 
218 1.3433123893388952e-10 9.323393033205833e-12 
219 1.1968247148149664e-10 8.306680781501615e-12 
220 1.0663085114260648e-10 7.400820111225634e-12 
221 9.500277595345797e-11 6.593762005691032e-12 
222 8.464073357937708e-11 5.8745741648952275e-12 
223 7.54102580455487e-11 5.23392384432738e-12 
224 6.718709794863731e-11 4.6631872519535725e-12 
225 5.985909086365387e-11 4.154579643286746e-12 
226 5.3330912054404097e-11 3.7014849103509804e-12 
227 4.751504898116014e-11 3.297829158423853e-12 
228 4.23325442384395e-11 2.9381322703707506e-12 
229 3.7714824099778116e-11 2.6176348186106425e-12 
230 3.36031562449363e-11 2.3322604281343152e-12 
231 2.9939367102911736e-11 2.0779715044782314e-12 
232 2.6674291946388346e-11 1.851355720920951e-12 
233 2.376473581633617e-11 1.6494150884370939e-12 
234 2.1173367367768e-11 1.469558587956664e-12 
235 1.8863845667764045e-11 1.3092639409427124e-12 
236 1.680687035852425e-11 1.1664975269659824e-12 
237 1.497366769276264e-11 1.0392622755228854e-12 
238 1.3341676466349641e-11 9.25992303836848e-13 
