variables ="k","rms","rms/rms0"
zone T="32 x 32"
1 37.82631842061125 0.9004955760263433 
2 3.264148026956174 0.07770650120069639 
3 0.28230307988064285 0.0067205238348708 
4 0.025102349521512024 0.0005975880190251752 
5 0.0027805841655836228 6.619475128493068e-5 
6 0.00044757419818379187 1.065497786293762e-5 
7 8.207442883629677e-5 1.9538687125232496e-6 
8 1.4872412944204519e-5 3.5405354314882534e-7 
9 2.626846248620932e-6 6.253485733085838e-8 
10 4.5612575854618745e-7 1.0858556815264724e-8 
11 7.84694039315258e-8 1.8680472761858936e-9 
12 1.34381868934364e-8 3.199102728633754e-10 
13 2.296682210669552e-9 5.467495269429696e-11 
14 3.922022388440219e-10 9.336789720308231e-12 
15 6.695798753924174e-11 1.5940058159574885e-12 
16 1.1430350497388428e-11 2.7211160073458884e-13 
