variables ="k","rms","rms/rms0"
zone f=8 x 8
1 14.728313184839779 0.5272751529229007 
2 10.358883907359063 0.37084912765064504 
3 8.208812623761148 0.29387635075307383 
4 6.649984154779722 0.23807012847578096 
5 5.660012225841758 0.202629029846955 
6 4.7953737875456 0.17167488329574665 
7 4.197052853545986 0.15025493126102551 
8 3.626731108760297 0.12983735312949415 
9 3.213140618412229 0.1150307703043675 
10 2.8005313739910034 0.1002593161860817 
11 2.4948142574765426 0.08931461143012671 
12 2.1834486691516113 0.07816769079240245 
13 1.950505094484673 0.06982828644830252 
14 1.7109206742813454 0.06125113913922129 
15 1.5307965479373182 0.05480267657115811 
16 1.34460114967449 0.04813686183321321 
17 1.204225354172975 0.04311139366786198 
18 1.0587097369799898 0.03790191934821766 
19 0.9488129035370698 0.03396760121333421 
20 0.834698230700753 0.029882283986888344 
21 0.7484155378194915 0.02679335455467097 
22 0.6587211024115605 0.02358228438305548 
23 0.5908457248334715 0.021152338764501896 
24 0.5202307409867905 0.01862431495490961 
25 0.46675959131360195 0.01671004220235064 
26 0.4110974164303312 0.014717330518041282 
27 0.36892785176041926 0.013207655690994084 
28 0.3250102454413371 0.011635400790022971 
29 0.2917250612068375 0.010443787712065217 
30 0.25704748050328186 0.009202326694839948 
31 0.23075680834364928 0.008261117880942302 
32 0.20335829079000584 0.007280248086034062 
33 0.1825807351345484 0.006536409419779181 
34 0.16092250035893457 0.005761042348884287 
35 0.14449454269691414 0.005172919745858108 
36 0.12736697699920818 0.0045597511019599924 
37 0.11437331423774728 0.004094576615676659 
38 0.10082420080286573 0.0036095169371725033 
39 0.09054385862265395 0.003241479611570924 
40 0.07982272497777826 0.00285766190541789 
41 0.0716871920093227 0.002566408973991421 
42 0.0632019927546404 0.002262637952935247 
43 0.056762583828623966 0.002032106439679994 
44 0.0500458826947829 0.0017916478363737525 
45 0.044948226254788136 0.0016091512024949091 
46 0.03963072781686505 0.0014187842020899214 
47 0.03559477596026348 0.001274296703374215 
48 0.03138456543014596 0.001123570725915346 
49 0.02818890014643486 0.0010091655744215837 
50 0.024855130669611907 0.0008898162783656793 
51 0.022324622321500887 0.0007992238147564511 
52 0.01968467732544608 0.0007047135077013539 
53 0.017680765694700194 0.000632973261667401 
54 0.015590143082659135 0.0005581287534312044 
55 0.014003174780748827 0.0005013151221910119 
56 0.012347507479724056 0.00044204205959509456 
57 0.01109068887461764 0.00039704782204140406 
58 0.009779445156316876 0.00035010515974129156 
59 0.008784066530470392 0.00031447050079748114 
60 0.007745573049611414 0.0002772923255334609 
61 0.006957234412488865 0.00024906971984690586 
62 0.006134742062473519 0.00021962440766555878 
63 0.005510369067567551 0.00019727178912477134 
64 0.0048589417891201315 0.00017395062440272657 
65 0.004364425432760249 0.00015624688710775072 
66 0.003848478977662354 0.00013777595003589414 
67 0.003456808114870753 0.00012375409217056437 
68 0.003048162455286773 0.00010912453480413016 
69 0.002737945881153279 9.801874899467152e-5 
70 0.0024142837429872595 8.64316105861466e-5 
71 0.002168580355696058 7.763540361514089e-5 
72 0.0019122269868856302 6.845792619152447e-5 
73 0.0017176196760334008 6.149096410280786e-5 
74 0.0015145767818134804 5.422200724698028e-5 
75 0.001360439181148838 4.870386501700146e-5 
76 0.0011996200086577431 4.29465218165962e-5 
77 0.0010775358980376277 3.857589788371179e-5 
78 0.0009501595412026005 3.401581098264814e-5 
79 0.0008534630877118218 3.055406783110155e-5 
80 0.0007525748414380291 2.694225805936929e-5 
81 0.0006759865104802518 2.420038779825622e-5 
82 0.0005960780249000507 2.1339655654299144e-5 
83 0.0005354162418795806 1.916795747560903e-5 
84 0.0004721247005143952 1.6902113673047515e-5 
85 0.0004240774956636078 1.5182018712594482e-5 
86 0.0003739473706448615 1.338735499220924e-5 
87 0.0003358915243127526 1.2024951712040846e-5 
88 0.0002961858873572773 1.0603485754951533e-5 
89 0.00026604369245860927 9.524392024042391e-6 
90 0.00023459477138075416 8.39851735920604e-6 
91 0.00021072058713623713 7.5438190654873376e-6 
92 0.0001858114037014002 6.652067692471494e-6 
93 0.00016690180352638338 5.975102027845632e-6 
94 0.00014717242741867228 5.268788299062715e-6 
95 0.00013219503332606008 4.732596023582217e-6 
96 0.00011656833218943572 4.173158487994281e-6 
97 0.00010470544910772675 3.7484660325505026e-6 
98 9.232827978227416e-5 3.3053620757750444e-6 
99 8.293225170595816e-5 2.9689832876116475e-6 
100 7.312888126466688e-5 2.618021600165161e-6 
101 6.568673142131048e-5 2.3515918571603735e-6 
102 5.792194458591498e-5 2.0736116760856574e-6 
103 5.202736885608235e-5 1.8625852482553256e-6 
104 4.5877247373124244e-5 1.6424102557273927e-6 
105 4.120843176621631e-5 1.4752661685392449e-6 
106 3.633721028136556e-5 1.3008759297446357e-6 
107 3.263926130531849e-5 1.1684889695153192e-6 
108 2.8780996084883865e-5 1.0303626709643214e-6 
109 2.5852024731382055e-5 9.255051900741049e-7 
110 2.2796074376401105e-5 8.161018476461375e-7 
111 2.0476173938292062e-5 7.330491692492015e-7 
112 1.8055699375946976e-5 6.463959266823488e-7 
113 1.6218215317950284e-5 5.806138051648033e-7 
114 1.4301071206744749e-5 5.119798454081868e-7 
115 1.2845686454605874e-5 4.5987691901634615e-7 
116 1.1327206707524497e-5 4.0551518520443913e-7 
117 1.017446483917168e-5 3.642469057152443e-7 
118 8.971748383525652e-6 3.2118953077251096e-7 
119 8.05871571140552e-6 2.8850286558730267e-7 
120 7.106100512521787e-6 2.5439914180275415e-7 
121 6.382930226035831e-6 2.2850956988703251e-7 
122 5.628408476993562e-6 2.0149761233174206e-7 
123 5.05561926308737e-6 1.8099169854754515e-7 
124 4.457998026698599e-6 1.595967957604959e-7 
125 4.004318594255784e-6 1.4335502461419188e-7 
126 3.5309708820399658e-6 1.264091269942795e-7 
127 3.171632711624319e-6 1.1354478289871994e-7 
128 2.7967162197584413e-6 1.0012273326540691e-7 
129 2.512101331312952e-6 8.993349048207847e-8 
130 2.2151475854424425e-6 7.930251531201834e-8 
131 1.989717498861941e-6 7.123209462748903e-8 
132 1.7545143822122222e-6 6.281179844400775e-8 
133 1.575961797477798e-6 5.6419597229986186e-8 
134 1.389668454001497e-6 4.9750276043151744e-8 
135 1.248245336954856e-6 4.468731365691212e-8 
136 1.1006911277717715e-6 3.940485753074067e-8 
137 9.886765184729969e-7 3.539472279865167e-8 
138 8.718057582432143e-7 3.121073735517234e-8 
139 7.8308424700126e-7 2.80344979704881e-8 
140 6.90516405715074e-7 2.4720559567809607e-8 
141 6.202442637703805e-7 2.2204809534177286e-8 
142 5.469256232589469e-7 1.957999453312488e-8 
143 4.912663605911958e-7 1.7587387106435806e-8 
144 4.331941080184301e-7 1.5508394388695375e-8 
145 3.8910902111493884e-7 1.3930143665280261e-8 
146 3.4311271639552125e-7 1.2283471144099547e-8 
147 3.081949909825524e-7 1.1033412921152866e-8 
148 2.7176347738934855e-7 9.729160922978216e-9 
149 2.4410678900312325e-7 8.739048585253196e-9 
150 2.1525109718889884e-7 7.706011799363667e-9 
151 1.9334553586536308e-7 6.921790412177368e-9 
152 1.7049029657634832e-7 6.10357045446971e-9 
153 1.5313993369297044e-7 5.482425648015053e-9 
154 1.350373708774556e-7 4.834352005293227e-9 
155 1.212949677287049e-7 4.3423725348101984e-9 
156 1.0695677651531435e-7 3.829063789280523e-9 
157 9.607207005241714e-8 3.4393901591290027e-9 
158 8.47154604929581e-8 3.032822348749122e-9 
159 7.609420290059671e-8 2.7241804249693403e-9 
160 6.709916374890851e-8 2.402157082259883e-9 
161 6.027067963466782e-8 2.1576966365603762e-9 
162 5.3146128988051214e-8 1.9026369780267376e-9 
163 4.773761897741676e-8 1.7090117537968697e-9 
164 4.2094593783309256e-8 1.5069908614632183e-9 
165 3.781078163138939e-8 1.3536299382434761e-9 
166 3.33412023470666e-8 1.1936185322483798e-9 
167 2.9948214406194696e-8 1.0721492089839687e-9 
168 2.6408065473366323e-8 9.454115068112382e-10 
169 2.3720662420184053e-8 8.492021963458208e-10 
170 2.0916670296642865e-8 7.488189849637719e-10 
171 1.8788134038078375e-8 6.726171642154348e-10 
172 1.6567215476761687e-8 5.931080473633475e-10 
173 1.4881339113227797e-8 5.327534971690711e-10 
174 1.3122243619903616e-8 4.697776944679701e-10 
175 1.1786987160088784e-8 4.219753735093928e-10 
176 1.0393677351282457e-8 3.720947365832623e-10 
177 9.336142814527112e-9 3.3423488952603875e-10 
178 8.232551277070041e-9 2.947261970251177e-10 
179 7.395002851618445e-9 2.647418757679561e-10 
180 6.520879254027598e-9 2.3344815952164153e-10 
181 5.857591235343853e-9 2.0970237905824188e-10 
182 5.165212961380797e-9 1.8491516441236212e-10 
183 4.639973389858396e-9 1.6611153280024377e-10 
184 4.091540104580313e-9 1.4647756380909918e-10 
185 3.675673825170706e-9 1.3158950749747184e-10 
186 3.2412437151773384e-9 1.160368641087607e-10 
187 2.9120469502327235e-9 1.0425158548251833e-10 
188 2.5679019366327146e-9 9.193115799049711e-11 
