variables ="k","rms","rms/rms0"
zone T="8 x 8"
1 3.0612330728080294e-14 2.784163712416186e-15 
